# CoordinateSystem = xByUzL
# Units = ISS
VARIABLES = "Found","X","Y","Z","Density","VelocityX","VelocityY","VelocityZ","VelocityMag","Pressure","Temperature","DensityGradientX","DensityGradientY","DensityGradientZ"
ZONE T="t = 7.00000000E-01",I=4000,SOLUTIONTIME=7.00000000E-01
 1  5.20099998E-01  1.25000006E-04  0.00000000E+00  1.52843595E+00  1.18934417E+00 -1.91038253E-03  0.00000000E+00  1.18934572E+00  1.90936542E+00  1.24922836E+00  2.02695179E+01  1.67949438E+00  0.00000000E+00
 1  5.20099998E-01  3.75000003E-04  0.00000000E+00  1.52885580E+00  1.18952680E+00 -1.94351026E-03  0.00000000E+00  1.18952847E+00  1.90978324E+00  1.24915850E+00  2.02293053E+01  1.67949438E+00  0.00000000E+00
 1  5.20099998E-01  6.24999986E-04  0.00000000E+00  1.52927566E+00  1.18970942E+00 -1.97663810E-03  0.00000000E+00  1.18971109E+00  1.91020083E+00  1.24908864E+00  2.01890907E+01  1.67949438E+00  0.00000000E+00
 1  5.20099998E-01  8.75000027E-04  0.00000000E+00  1.52969551E+00  1.18989217E+00 -2.00976594E-03  0.00000000E+00  1.18989384E+00  1.91061854E+00  1.24901879E+00  2.01488781E+01  1.67949438E+00  0.00000000E+00
 1  5.20099998E-01  1.12499995E-03  0.00000000E+00  1.53011537E+00  1.19007480E+00 -2.04289379E-03  0.00000000E+00  1.19007647E+00  1.91103613E+00  1.24894905E+00  2.01086636E+01  1.67949438E+00  0.00000000E+00
 1  5.20099998E-01  1.37499999E-03  0.00000000E+00  1.53053522E+00  1.19025743E+00 -2.07602163E-03  0.00000000E+00  1.19025922E+00  1.91145360E+00  1.24887919E+00  2.00684509E+01  1.67949438E+00  0.00000000E+00
 1  5.20099998E-01  1.62500003E-03  0.00000000E+00  1.53095508E+00  1.19044006E+00 -2.10914947E-03  0.00000000E+00  1.19044185E+00  1.91187108E+00  1.24880934E+00  2.00282383E+01  1.67949438E+00  0.00000000E+00
 1  5.20099998E-01  1.87499996E-03  0.00000000E+00  1.53137505E+00  1.19062269E+00 -2.14227708E-03  0.00000000E+00  1.19062459E+00  1.91228843E+00  1.24873948E+00  1.99880238E+01  1.67949438E+00  0.00000000E+00
 1  5.20099998E-01  2.12500012E-03  0.00000000E+00  1.53179491E+00  1.19080532E+00 -2.17540492E-03  0.00000000E+00  1.19080734E+00  1.91270578E+00  1.24866962E+00  1.99478111E+01  1.67949438E+00  0.00000000E+00
 1  5.20099998E-01  2.37499992E-03  0.00000000E+00  1.53221476E+00  1.19098794E+00 -2.20853277E-03  0.00000000E+00  1.19098997E+00  1.91312301E+00  1.24859977E+00  1.99075985E+01  1.67949438E+00  0.00000000E+00
 1  5.20099998E-01  2.62499996E-03  0.00000000E+00  1.53263462E+00  1.19117057E+00 -2.24166061E-03  0.00000000E+00  1.19117272E+00  1.91354024E+00  1.24852991E+00  1.98673840E+01  1.67949438E+00  0.00000000E+00
 1  5.20099998E-01  2.87500001E-03  0.00000000E+00  1.53305447E+00  1.19135320E+00 -2.27478845E-03  0.00000000E+00  1.19135535E+00  1.91395736E+00  1.24846017E+00  1.98271713E+01  1.67949438E+00  0.00000000E+00
 1  5.20099998E-01  3.12500005E-03  0.00000000E+00  1.53347433E+00  1.19153583E+00 -2.30791629E-03  0.00000000E+00  1.19153810E+00  1.91437447E+00  1.24839032E+00  1.97869587E+01  1.67949438E+00  0.00000000E+00
 1  5.20099998E-01  3.37500009E-03  0.00000000E+00  1.53389430E+00  1.19171846E+00 -2.34104414E-03  0.00000000E+00  1.19172084E+00  1.91479158E+00  1.24832046E+00  1.97467442E+01  1.67949438E+00  0.00000000E+00
 1  5.20099998E-01  3.62499990E-03  0.00000000E+00  1.53431416E+00  1.19190109E+00 -2.37417175E-03  0.00000000E+00  1.19190347E+00  1.91520846E+00  1.24825060E+00  1.97065315E+01  1.67949438E+00  0.00000000E+00
 1  5.20099998E-01  3.87499994E-03  0.00000000E+00  1.53473401E+00  1.19208372E+00 -2.40729959E-03  0.00000000E+00  1.19208622E+00  1.91562545E+00  1.24818075E+00  1.96663170E+01  1.67949438E+00  0.00000000E+00
 1  5.20099998E-01  4.12499998E-03  0.00000000E+00  1.53515387E+00  1.19226646E+00 -2.44042743E-03  0.00000000E+00  1.19226885E+00  1.91604233E+00  1.24811089E+00  1.96261044E+01  1.67949438E+00  0.00000000E+00
 1  5.20099998E-01  4.37500002E-03  0.00000000E+00  1.53557372E+00  1.19244909E+00 -2.47355527E-03  0.00000000E+00  1.19245160E+00  1.91645908E+00  1.24804103E+00  1.95858917E+01  1.67949438E+00  0.00000000E+00
 1  5.20099998E-01  4.62500006E-03  0.00000000E+00  1.53599358E+00  1.19263172E+00 -2.50668311E-03  0.00000000E+00  1.19263434E+00  1.91687584E+00  1.24797130E+00  1.95456772E+01  1.67949438E+00  0.00000000E+00
 1  5.20099998E-01  4.87500010E-03  0.00000000E+00  1.53641343E+00  1.19281435E+00 -2.53981096E-03  0.00000000E+00  1.19281697E+00  1.91729259E+00  1.24790144E+00  1.95054646E+01  1.67949438E+00  0.00000000E+00
 1  5.20099998E-01  5.12500014E-03  0.00000000E+00  1.53683341E+00  1.19299698E+00 -2.57293880E-03  0.00000000E+00  1.19299972E+00  1.91770911E+00  1.24783158E+00  1.94652519E+01  1.67949438E+00  0.00000000E+00
 1  5.20099998E-01  5.37500018E-03  0.00000000E+00  1.53725326E+00  1.19317961E+00 -2.60606664E-03  0.00000000E+00  1.19318247E+00  1.91812575E+00  1.24776173E+00  1.94250374E+01  1.67949438E+00  0.00000000E+00
 1  5.20099998E-01  5.62500022E-03  0.00000000E+00  1.53767312E+00  1.19336224E+00 -2.63919425E-03  0.00000000E+00  1.19336510E+00  1.91854227E+00  1.24769187E+00  1.93848248E+01  1.67949438E+00  0.00000000E+00
 1  5.20099998E-01  5.87499980E-03  0.00000000E+00  1.53809297E+00  1.19354486E+00 -2.67232209E-03  0.00000000E+00  1.19354784E+00  1.91895866E+00  1.24762201E+00  1.93446121E+01  1.67949438E+00  0.00000000E+00
 1  5.20099998E-01  6.12499984E-03  0.00000000E+00  1.53851283E+00  1.19372749E+00 -2.70544994E-03  0.00000000E+00  1.19373059E+00  1.91937506E+00  1.24755216E+00  1.93043976E+01  1.67949438E+00  0.00000000E+00
 1  5.20099998E-01  6.37499988E-03  0.00000000E+00  1.53893268E+00  1.19391012E+00 -2.73857778E-03  0.00000000E+00  1.19391334E+00  1.91979146E+00  1.24748230E+00  1.92641850E+01  1.67949438E+00  0.00000000E+00
 1  5.20099998E-01  6.62499992E-03  0.00000000E+00  1.53935266E+00  1.19409275E+00 -2.77170562E-03  0.00000000E+00  1.19409597E+00  1.92020774E+00  1.24741256E+00  1.92239723E+01  1.67949438E+00  0.00000000E+00
 1  5.20099998E-01  6.87499996E-03  0.00000000E+00  1.53977251E+00  1.19427538E+00 -2.80483346E-03  0.00000000E+00  1.19427872E+00  1.92062390E+00  1.24734271E+00  1.91837578E+01  1.67949438E+00  0.00000000E+00
 1  5.20099998E-01  7.12500000E-03  0.00000000E+00  1.54019237E+00  1.19445801E+00 -2.83796131E-03  0.00000000E+00  1.19446146E+00  1.92104006E+00  1.24727285E+00  1.91435452E+01  1.67949438E+00  0.00000000E+00
 1  5.20099998E-01  7.37500004E-03  0.00000000E+00  1.54061222E+00  1.19464076E+00 -2.87108892E-03  0.00000000E+00  1.19464409E+00  1.92145622E+00  1.24720299E+00  1.91033306E+01  1.67949438E+00  0.00000000E+00
 1  5.20099998E-01  7.62500009E-03  0.00000000E+00  1.54103208E+00  1.19482338E+00 -2.90421676E-03  0.00000000E+00  1.19482684E+00  1.92187226E+00  1.24713314E+00  1.90631180E+01  1.67949438E+00  0.00000000E+00
 1  5.20099998E-01  7.87500013E-03  0.00000000E+00  1.54145193E+00  1.19500601E+00 -2.93734460E-03  0.00000000E+00  1.19500959E+00  1.92228818E+00  1.24706328E+00  1.90229053E+01  1.67949438E+00  0.00000000E+00
 1  5.20099998E-01  8.12499970E-03  0.00000000E+00  1.54187179E+00  1.19518864E+00 -2.97047244E-03  0.00000000E+00  1.19519234E+00  1.92270410E+00  1.24699342E+00  1.89826908E+01  1.67949438E+00  0.00000000E+00
 1  5.20099998E-01  8.37500021E-03  0.00000000E+00  1.54229176E+00  1.19537127E+00 -3.00360029E-03  0.00000000E+00  1.19537497E+00  1.92312002E+00  1.24692369E+00  1.89424782E+01  1.67949438E+00  0.00000000E+00
 1  5.20099998E-01  8.62499978E-03  0.00000000E+00  1.54271162E+00  1.19555390E+00 -3.03672813E-03  0.00000000E+00  1.19555771E+00  1.92353582E+00  1.24685383E+00  1.89022655E+01  1.67949438E+00  0.00000000E+00
 1  5.20099998E-01  8.87500029E-03  0.00000000E+00  1.54313147E+00  1.19573653E+00 -3.06985597E-03  0.00000000E+00  1.19574046E+00  1.92395151E+00  1.24678397E+00  1.88620510E+01  1.67949438E+00  0.00000000E+00
 1  5.20099998E-01  9.12499987E-03  0.00000000E+00  1.54355133E+00  1.19591916E+00 -3.10298381E-03  0.00000000E+00  1.19592321E+00  1.92436719E+00  1.24671412E+00  1.88218384E+01  1.67949438E+00  0.00000000E+00
 1  5.20099998E-01  9.37500037E-03  0.00000000E+00  1.54397118E+00  1.19610178E+00 -3.13611142E-03  0.00000000E+00  1.19610596E+00  1.92478287E+00  1.24664426E+00  1.87816257E+01  1.67949438E+00  0.00000000E+00
 1  5.20099998E-01  9.62499995E-03  0.00000000E+00  1.54439104E+00  1.19628441E+00 -3.16923927E-03  0.00000000E+00  1.19628859E+00  1.92519844E+00  1.24657440E+00  1.87414112E+01  1.67949438E+00  0.00000000E+00
 1  5.20099998E-01  9.87500045E-03  0.00000000E+00  1.54481101E+00  1.19646704E+00 -3.20236711E-03  0.00000000E+00  1.19647133E+00  1.92561400E+00  1.24650455E+00  1.87011986E+01  1.67949438E+00  0.00000000E+00
 1  5.20099998E-01  1.01250000E-02  0.00000000E+00  1.54523087E+00  1.19664967E+00 -3.23549495E-03  0.00000000E+00  1.19665408E+00  1.92602944E+00  1.24643481E+00  1.86609840E+01  1.67949438E+00  0.00000000E+00
 1  5.20099998E-01  1.03749996E-02  0.00000000E+00  1.54565072E+00  1.19683230E+00 -3.26862279E-03  0.00000000E+00  1.19683683E+00  1.92644477E+00  1.24636495E+00  1.86207714E+01  1.67949438E+00  0.00000000E+00
 1  5.20099998E-01  1.06250001E-02  0.00000000E+00  1.54607058E+00  1.19701505E+00 -3.30175064E-03  0.00000000E+00  1.19701958E+00  1.92686009E+00  1.24629509E+00  1.85805588E+01  1.67949438E+00  0.00000000E+00
 1  5.20099998E-01  1.08749997E-02  0.00000000E+00  1.54649043E+00  1.19719768E+00 -3.33487848E-03  0.00000000E+00  1.19720232E+00  1.92727542E+00  1.24622524E+00  1.85403442E+01  1.67949438E+00  0.00000000E+00
 1  5.20099998E-01  1.11250002E-02  0.00000000E+00  1.54691029E+00  1.19738030E+00 -3.36800609E-03  0.00000000E+00  1.19738495E+00  1.92769063E+00  1.24615538E+00  1.85001316E+01  1.67949438E+00  0.00000000E+00
 1  5.20099998E-01  1.13749998E-02  0.00000000E+00  1.54733014E+00  1.19756293E+00 -3.40113393E-03  0.00000000E+00  1.19756770E+00  1.92810583E+00  1.24608552E+00  1.84599190E+01  1.67949438E+00  0.00000000E+00
 1  5.20099998E-01  1.16250003E-02  0.00000000E+00  1.54775012E+00  1.19774556E+00 -3.43426177E-03  0.00000000E+00  1.19775045E+00  1.92852092E+00  1.24601567E+00  1.84197044E+01  1.67949438E+00  0.00000000E+00
 1  5.20099998E-01  1.18749999E-02  0.00000000E+00  1.54816997E+00  1.19792819E+00 -3.46738962E-03  0.00000000E+00  1.19793320E+00  1.92893600E+00  1.24594593E+00  1.83794918E+01  1.67949438E+00  0.00000000E+00
 1  5.20099998E-01  1.21250004E-02  0.00000000E+00  1.54858983E+00  1.19811082E+00 -3.50051746E-03  0.00000000E+00  1.19811594E+00  1.92935097E+00  1.24587607E+00  1.83392792E+01  1.67949438E+00  0.00000000E+00
 1  5.20099998E-01  1.23749999E-02  0.00000000E+00  1.54900968E+00  1.19829345E+00 -3.53364530E-03  0.00000000E+00  1.19829869E+00  1.92976582E+00  1.24580622E+00  1.82990646E+01  1.67949438E+00  0.00000000E+00
 1  5.20099998E-01  1.26250004E-02  0.00000000E+00  1.54942954E+00  1.19847608E+00 -3.56677314E-03  0.00000000E+00  1.19848144E+00  1.93018079E+00  1.24573636E+00  1.82588520E+01  1.67949438E+00  0.00000000E+00
 1  5.20099998E-01  1.28750000E-02  0.00000000E+00  1.54984939E+00  1.19865870E+00 -3.59990099E-03  0.00000000E+00  1.19866419E+00  1.93059552E+00  1.24566650E+00  1.82186375E+01  1.67949438E+00  0.00000000E+00
 1  5.20099998E-01  1.31249996E-02  0.00000000E+00  1.55026937E+00  1.19884133E+00 -3.63302859E-03  0.00000000E+00  1.19884682E+00  1.93101025E+00  1.24559665E+00  1.81784248E+01  1.67949438E+00  0.00000000E+00
 1  5.20099998E-01  1.33750001E-02  0.00000000E+00  1.55068922E+00  1.19902396E+00 -3.66615644E-03  0.00000000E+00  1.19902956E+00  1.93142498E+00  1.24552679E+00  1.81382122E+01  1.67949438E+00  0.00000000E+00
 1  5.20099998E-01  1.36249997E-02  0.00000000E+00  1.55110908E+00  1.19920659E+00 -3.69928428E-03  0.00000000E+00  1.19921231E+00  1.93183959E+00  1.24545705E+00  1.80979977E+01  1.67949438E+00  0.00000000E+00
 1  5.20099998E-01  1.38750002E-02  0.00000000E+00  1.55152893E+00  1.19938922E+00 -3.73241212E-03  0.00000000E+00  1.19939506E+00  1.93225420E+00  1.24538720E+00  1.80577850E+01  1.67949438E+00  0.00000000E+00
 1  5.20099998E-01  1.41249998E-02  0.00000000E+00  1.55194879E+00  1.19957197E+00 -3.76553996E-03  0.00000000E+00  1.19957781E+00  1.93266869E+00  1.24531734E+00  1.80175724E+01  1.67949438E+00  0.00000000E+00
 1  5.20099998E-01  1.43750003E-02  0.00000000E+00  1.55236864E+00  1.19975460E+00 -3.79866781E-03  0.00000000E+00  1.19976056E+00  1.93308318E+00  1.24524748E+00  1.79773579E+01  1.67949438E+00  0.00000000E+00
 1  5.20099998E-01  1.46249998E-02  0.00000000E+00  1.55278862E+00  1.19993722E+00 -3.83179565E-03  0.00000000E+00  1.19994330E+00  1.93349755E+00  1.24517763E+00  1.79371452E+01  1.67949438E+00  0.00000000E+00
 1  5.20099998E-01  1.48750003E-02  0.00000000E+00  1.55320847E+00  1.20011985E+00 -3.86492326E-03  0.00000000E+00  1.20012605E+00  1.93391192E+00  1.24510777E+00  1.78969326E+01  1.67949438E+00  0.00000000E+00
 1  5.20099998E-01  1.51249999E-02  0.00000000E+00  1.55362833E+00  1.20030248E+00 -3.89805110E-03  0.00000000E+00  1.20030880E+00  1.93432617E+00  1.24503791E+00  1.78567181E+01  1.67949438E+00  0.00000000E+00
 1  5.20099998E-01  1.53750004E-02  0.00000000E+00  1.55404818E+00  1.20048511E+00 -3.93117918E-03  0.00000000E+00  1.20049155E+00  1.93474042E+00  1.24496806E+00  1.78165054E+01  1.67949438E+00  0.00000000E+00
 1  5.20099998E-01  1.56250000E-02  0.00000000E+00  1.55446804E+00  1.20066774E+00 -3.96430679E-03  0.00000000E+00  1.20067430E+00  1.93515456E+00  1.24489832E+00  1.77762909E+01  1.67949438E+00  0.00000000E+00
 1  5.20099998E-01  1.58750005E-02  0.00000000E+00  1.55488789E+00  1.20085037E+00 -3.99743440E-03  0.00000000E+00  1.20085704E+00  1.93556869E+00  1.24482846E+00  1.77360783E+01  1.67949438E+00  0.00000000E+00
 1  5.20099998E-01  1.61249992E-02  0.00000000E+00  1.55530775E+00  1.20103300E+00 -4.03056247E-03  0.00000000E+00  1.20103979E+00  1.93598270E+00  1.24475861E+00  1.76958656E+01  1.67949438E+00  0.00000000E+00
 1  5.20099998E-01  1.63749997E-02  0.00000000E+00  1.55572772E+00  1.20121562E+00 -4.06369008E-03  0.00000000E+00  1.20122254E+00  1.93639672E+00  1.24468875E+00  1.76556511E+01  1.67949438E+00  0.00000000E+00
 1  5.20099998E-01  1.66250002E-02  0.00000000E+00  1.55614758E+00  1.20139825E+00 -4.09681816E-03  0.00000000E+00  1.20140529E+00  1.93681061E+00  1.24461889E+00  1.76154385E+01  1.67949438E+00  0.00000000E+00
 1  5.20099998E-01  1.68750007E-02  0.00000000E+00  1.55656743E+00  1.20158088E+00 -4.12994577E-03  0.00000000E+00  1.20158803E+00  1.93722451E+00  1.24454904E+00  1.75752258E+01  1.67949438E+00  0.00000000E+00
 1  5.20099998E-01  1.71249993E-02  0.00000000E+00  1.55698729E+00  1.20176351E+00 -4.16307384E-03  0.00000000E+00  1.20177078E+00  1.93763840E+00  1.24447918E+00  1.75350113E+01  1.67949438E+00  0.00000000E+00
 1  5.20099998E-01  1.73749998E-02  0.00000000E+00  1.55740714E+00  1.20194626E+00 -4.19620145E-03  0.00000000E+00  1.20195353E+00  1.93805206E+00  1.24440944E+00  1.74947987E+01  1.67949438E+00  0.00000000E+00
 1  5.20099998E-01  1.76250003E-02  0.00000000E+00  1.55782700E+00  1.20212889E+00 -4.22932906E-03  0.00000000E+00  1.20213628E+00  1.93846583E+00  1.24433959E+00  1.74545860E+01  1.67949438E+00  0.00000000E+00
 1  5.20099998E-01  1.78750008E-02  0.00000000E+00  1.55824697E+00  1.20231152E+00 -4.26245714E-03  0.00000000E+00  1.20231903E+00  1.93887949E+00  1.24426973E+00  1.74143715E+01  1.67949438E+00  0.00000000E+00
 1  5.20099998E-01  1.81249995E-02  0.00000000E+00  1.55866683E+00  1.20249414E+00 -4.29558475E-03  0.00000000E+00  1.20250177E+00  1.93929303E+00  1.24419987E+00  1.73741589E+01  1.67949438E+00  0.00000000E+00
 1  5.20099998E-01  1.83750000E-02  0.00000000E+00  1.55908668E+00  1.20267677E+00 -4.32871282E-03  0.00000000E+00  1.20268452E+00  1.93970656E+00  1.24413002E+00  1.73339443E+01  1.67949438E+00  0.00000000E+00
 1  5.20099998E-01  1.86250005E-02  0.00000000E+00  1.55950654E+00  1.20285940E+00 -4.36184043E-03  0.00000000E+00  1.20286727E+00  1.94011998E+00  1.24406016E+00  1.72937317E+01  1.67949438E+00  0.00000000E+00
 1  5.20099998E-01  1.88749991E-02  0.00000000E+00  1.55992639E+00  1.20304203E+00 -4.39496851E-03  0.00000000E+00  1.20305002E+00  1.94053340E+00  1.24399030E+00  1.72535191E+01  1.67949438E+00  0.00000000E+00
 1  5.20099998E-01  1.91249996E-02  0.00000000E+00  1.56034625E+00  1.20322466E+00 -4.42809612E-03  0.00000000E+00  1.20323277E+00  1.94094670E+00  1.24392056E+00  1.72133045E+01  1.67949438E+00  0.00000000E+00
 1  5.20099998E-01  1.93750001E-02  0.00000000E+00  1.56076610E+00  1.20340729E+00 -4.46122419E-03  0.00000000E+00  1.20341563E+00  1.94136000E+00  1.24385071E+00  1.71730919E+01  1.67949438E+00  0.00000000E+00
 1  5.20099998E-01  1.96250007E-02  0.00000000E+00  1.56118608E+00  1.20358992E+00 -4.49435180E-03  0.00000000E+00  1.20359838E+00  1.94177330E+00  1.24378085E+00  1.71328793E+01  1.67949438E+00  0.00000000E+00
 1  5.20099998E-01  1.98749993E-02  0.00000000E+00  1.56160593E+00  1.20377254E+00 -4.52747941E-03  0.00000000E+00  1.20378113E+00  1.94218647E+00  1.24371099E+00  1.70926647E+01  1.67949438E+00  0.00000000E+00
 1  5.20099998E-01  2.01249998E-02  0.00000000E+00  1.56181014E+00  1.20380306E+00 -4.61116619E-03  0.00000000E+00  1.20381188E+00  1.94239593E+00  1.24368250E+00  1.70732746E+01 -4.59524989E-02  0.00000000E+00
 1  5.20099998E-01  2.03750003E-02  0.00000000E+00  1.56179857E+00  1.20368135E+00 -4.74541169E-03  0.00000000E+00  1.20369077E+00  1.94240165E+00  1.24369538E+00  1.70747070E+01 -4.59524989E-02  0.00000000E+00
 1  5.20099998E-01  2.06250008E-02  0.00000000E+00  1.56178713E+00  1.20355976E+00 -4.87965718E-03  0.00000000E+00  1.20356965E+00  1.94240737E+00  1.24370813E+00  1.70761395E+01 -4.59524989E-02  0.00000000E+00
 1  5.20099998E-01  2.08749995E-02  0.00000000E+00  1.56177568E+00  1.20343804E+00 -5.01390267E-03  0.00000000E+00  1.20344853E+00  1.94241309E+00  1.24372101E+00  1.70775719E+01 -4.59524989E-02  0.00000000E+00
 1  5.20099998E-01  2.11250000E-02  0.00000000E+00  1.56176412E+00  1.20331633E+00 -5.14814816E-03  0.00000000E+00  1.20332742E+00  1.94241893E+00  1.24373376E+00  1.70790024E+01 -4.59524989E-02  0.00000000E+00
 1  5.20099998E-01  2.13750005E-02  0.00000000E+00  1.56175268E+00  1.20319474E+00 -5.28239366E-03  0.00000000E+00  1.20320630E+00  1.94242465E+00  1.24374664E+00  1.70804348E+01 -4.59524989E-02  0.00000000E+00
 1  5.20099998E-01  2.16249991E-02  0.00000000E+00  1.56174111E+00  1.20307302E+00 -5.41663915E-03  0.00000000E+00  1.20308518E+00  1.94243038E+00  1.24375951E+00  1.70818672E+01 -4.59524989E-02  0.00000000E+00
 1  5.20099998E-01  2.18749996E-02  0.00000000E+00  1.56172967E+00  1.20295131E+00 -5.55088464E-03  0.00000000E+00  1.20296419E+00  1.94243610E+00  1.24377227E+00  1.70832996E+01 -4.59524989E-02  0.00000000E+00
 1  5.20099998E-01  2.21250001E-02  0.00000000E+00  1.56171823E+00  1.20282972E+00 -5.68513013E-03  0.00000000E+00  1.20284307E+00  1.94244194E+00  1.24378514E+00  1.70847321E+01 -4.59524989E-02  0.00000000E+00
 1  5.20099998E-01  2.23750006E-02  0.00000000E+00  1.56170666E+00  1.20270801E+00 -5.81937563E-03  0.00000000E+00  1.20272207E+00  1.94244766E+00  1.24379802E+00  1.70861645E+01 -4.59524989E-02  0.00000000E+00
 1  5.20099998E-01  2.26249993E-02  0.00000000E+00  1.56169522E+00  1.20258629E+00 -5.95362112E-03  0.00000000E+00  1.20260108E+00  1.94245338E+00  1.24381077E+00  1.70875969E+01 -4.59524989E-02  0.00000000E+00
 1  5.20099998E-01  2.28749998E-02  0.00000000E+00  1.56168377E+00  1.20246470E+00 -6.08786661E-03  0.00000000E+00  1.20248008E+00  1.94245911E+00  1.24382365E+00  1.70890274E+01 -4.59524989E-02  0.00000000E+00
 1  5.20099998E-01  2.31250003E-02  0.00000000E+00  1.56167221E+00  1.20234299E+00 -6.22211210E-03  0.00000000E+00  1.20235908E+00  1.94246495E+00  1.24383652E+00  1.70904598E+01 -4.59524989E-02  0.00000000E+00
 1  5.20099998E-01  2.33750008E-02  0.00000000E+00  1.56166077E+00  1.20222127E+00 -6.35635760E-03  0.00000000E+00  1.20223808E+00  1.94247067E+00  1.24384928E+00  1.70918922E+01 -4.59524989E-02  0.00000000E+00
 1  5.20099998E-01  2.36249994E-02  0.00000000E+00  1.56164920E+00  1.20209968E+00 -6.49060309E-03  0.00000000E+00  1.20211720E+00  1.94247639E+00  1.24386215E+00  1.70933247E+01 -4.59524989E-02  0.00000000E+00
 1  5.20099998E-01  2.38750000E-02  0.00000000E+00  1.56163776E+00  1.20197797E+00 -6.62484812E-03  0.00000000E+00  1.20199621E+00  1.94248211E+00  1.24387503E+00  1.70947571E+01 -4.59524989E-02  0.00000000E+00
 1  5.20099998E-01  2.41250005E-02  0.00000000E+00  1.56162632E+00  1.20185626E+00 -6.75909361E-03  0.00000000E+00  1.20187533E+00  1.94248796E+00  1.24388778E+00  1.70961895E+01 -4.59524989E-02  0.00000000E+00
 1  5.20099998E-01  2.43749991E-02  0.00000000E+00  1.56161475E+00  1.20173466E+00 -6.89333910E-03  0.00000000E+00  1.20175445E+00  1.94249368E+00  1.24390066E+00  1.70976219E+01 -4.59524989E-02  0.00000000E+00
 1  5.20099998E-01  2.46249996E-02  0.00000000E+00  1.56160331E+00  1.20161295E+00 -7.02758459E-03  0.00000000E+00  1.20163345E+00  1.94249940E+00  1.24391353E+00  1.70990524E+01 -4.59524989E-02  0.00000000E+00
 1  5.20099998E-01  2.48750001E-02  0.00000000E+00  1.56159186E+00  1.20149124E+00 -7.16183009E-03  0.00000000E+00  1.20151258E+00  1.94250512E+00  1.24392629E+00  1.71004848E+01 -4.59524989E-02  0.00000000E+00
 1  5.20099998E-01  2.51250006E-02  0.00000000E+00  1.56158030E+00  1.20136964E+00 -7.29607558E-03  0.00000000E+00  1.20139182E+00  1.94251096E+00  1.24393916E+00  1.71019173E+01 -4.59524989E-02  0.00000000E+00
 1  5.20099998E-01  2.53749993E-02  0.00000000E+00  1.56156886E+00  1.20124793E+00 -7.43032107E-03  0.00000000E+00  1.20127094E+00  1.94251668E+00  1.24395204E+00  1.71033497E+01 -4.59524989E-02  0.00000000E+00
 1  5.20099998E-01  2.56249998E-02  0.00000000E+00  1.56155741E+00  1.20112622E+00 -7.56456656E-03  0.00000000E+00  1.20115006E+00  1.94252241E+00  1.24396479E+00  1.71047821E+01 -4.59524989E-02  0.00000000E+00
 1  5.20099998E-01  2.58750003E-02  0.00000000E+00  1.56154585E+00  1.20100462E+00 -7.69881206E-03  0.00000000E+00  1.20102930E+00  1.94252813E+00  1.24397767E+00  1.71062145E+01 -4.59524989E-02  0.00000000E+00
 1  5.20099998E-01  2.61250008E-02  0.00000000E+00  1.56153440E+00  1.20088291E+00 -7.83305801E-03  0.00000000E+00  1.20090842E+00  1.94253385E+00  1.24399054E+00  1.71076469E+01 -4.59524989E-02  0.00000000E+00
 1  5.20099998E-01  2.63749994E-02  0.00000000E+00  1.56152284E+00  1.20076120E+00 -7.96730351E-03  0.00000000E+00  1.20078766E+00  1.94253969E+00  1.24400330E+00  1.71090775E+01 -4.59524989E-02  0.00000000E+00
 1  5.20099998E-01  2.66249999E-02  0.00000000E+00  1.56151140E+00  1.20063961E+00 -8.10154900E-03  0.00000000E+00  1.20066690E+00  1.94254541E+00  1.24401617E+00  1.71105099E+01 -4.59524989E-02  0.00000000E+00
 1  5.20099998E-01  2.68750004E-02  0.00000000E+00  1.56149995E+00  1.20051789E+00 -8.23579356E-03  0.00000000E+00  1.20054615E+00  1.94255114E+00  1.24402893E+00  1.71119423E+01 -4.59524989E-02  0.00000000E+00
 1  5.20099998E-01  2.71249991E-02  0.00000000E+00  1.56148839E+00  1.20039618E+00 -8.37003905E-03  0.00000000E+00  1.20042539E+00  1.94255686E+00  1.24404180E+00  1.71133747E+01 -4.59524989E-02  0.00000000E+00
 1  5.20099998E-01  2.73749996E-02  0.00000000E+00  1.56147695E+00  1.20027459E+00 -8.50428455E-03  0.00000000E+00  1.20030463E+00  1.94256270E+00  1.24405468E+00  1.71148071E+01 -4.59524989E-02  0.00000000E+00
 1  5.20099998E-01  2.76250001E-02  0.00000000E+00  1.56146550E+00  1.20015287E+00 -8.63853004E-03  0.00000000E+00  1.20018399E+00  1.94256842E+00  1.24406743E+00  1.71162395E+01 -4.59524989E-02  0.00000000E+00
 1  5.20099998E-01  2.78750006E-02  0.00000000E+00  1.56145394E+00  1.20003116E+00 -8.77277553E-03  0.00000000E+00  1.20006323E+00  1.94257414E+00  1.24408031E+00  1.71176720E+01 -4.59524989E-02  0.00000000E+00
 1  5.20099998E-01  2.81249993E-02  0.00000000E+00  1.56144249E+00  1.19990957E+00 -8.90702102E-03  0.00000000E+00  1.19994259E+00  1.94257987E+00  1.24409318E+00  1.71191025E+01 -4.59524989E-02  0.00000000E+00
 1  5.20099998E-01  2.83749998E-02  0.00000000E+00  1.56143093E+00  1.19978786E+00 -9.04126652E-03  0.00000000E+00  1.19982195E+00  1.94258559E+00  1.24410594E+00  1.71205349E+01 -4.59524989E-02  0.00000000E+00
 1  5.20099998E-01  2.86250003E-02  0.00000000E+00  1.56141949E+00  1.19966614E+00 -9.17551201E-03  0.00000000E+00  1.19970131E+00  1.94259143E+00  1.24411881E+00  1.71219673E+01 -4.59524989E-02  0.00000000E+00
 1  5.20099998E-01  2.88750008E-02  0.00000000E+00  1.56140804E+00  1.19954455E+00 -9.30975750E-03  0.00000000E+00  1.19958067E+00  1.94259715E+00  1.24413168E+00  1.71233997E+01 -4.59524989E-02  0.00000000E+00
 1  5.20099998E-01  2.91249994E-02  0.00000000E+00  1.56139648E+00  1.19942284E+00 -9.44400299E-03  0.00000000E+00  1.19946003E+00  1.94260287E+00  1.24414444E+00  1.71248322E+01 -4.59524989E-02  0.00000000E+00
 1  5.20099998E-01  2.93749999E-02  0.00000000E+00  1.56138504E+00  1.19930112E+00 -9.57824849E-03  0.00000000E+00  1.19933939E+00  1.94260859E+00  1.24415731E+00  1.71262646E+01 -4.59524989E-02  0.00000000E+00
 1  5.20099998E-01  2.96250004E-02  0.00000000E+00  1.56137359E+00  1.19917953E+00 -9.71249398E-03  0.00000000E+00  1.19921887E+00  1.94261432E+00  1.24417019E+00  1.71276951E+01 -4.59524989E-02  0.00000000E+00
 1  5.20099998E-01  2.98749991E-02  0.00000000E+00  1.56136203E+00  1.19905782E+00 -9.84673947E-03  0.00000000E+00  1.19909823E+00  1.94262004E+00  1.24418294E+00  1.71291275E+01 -4.59524989E-02  0.00000000E+00
 1  5.20099998E-01  3.01249996E-02  0.00000000E+00  1.56135058E+00  1.19893610E+00 -9.98098496E-03  0.00000000E+00  1.19897771E+00  1.94262588E+00  1.24419582E+00  1.71305599E+01 -4.59524989E-02  0.00000000E+00
 1  5.20099998E-01  3.03750001E-02  0.00000000E+00  1.56133914E+00  1.19881451E+00 -1.01152305E-02  0.00000000E+00  1.19885719E+00  1.94263160E+00  1.24420869E+00  1.71319923E+01 -4.59524989E-02  0.00000000E+00
 1  5.20099998E-01  3.06250006E-02  0.00000000E+00  1.56132758E+00  1.19869280E+00 -1.02494759E-02  0.00000000E+00  1.19873667E+00  1.94263732E+00  1.24422145E+00  1.71334248E+01 -4.59524989E-02  0.00000000E+00
 1  5.20099998E-01  3.08749992E-02  0.00000000E+00  1.56131613E+00  1.19857109E+00 -1.03837214E-02  0.00000000E+00  1.19861615E+00  1.94264305E+00  1.24423432E+00  1.71348572E+01 -4.59524989E-02  0.00000000E+00
 1  5.20099998E-01  3.11249997E-02  0.00000000E+00  1.56130457E+00  1.19844949E+00 -1.05179669E-02  0.00000000E+00  1.19849563E+00  1.94264877E+00  1.24424720E+00  1.71362896E+01 -4.59524989E-02  0.00000000E+00
 1  5.20099998E-01  3.13749984E-02  0.00000000E+00  1.56129313E+00  1.19832778E+00 -1.06522124E-02  0.00000000E+00  1.19837511E+00  1.94265449E+00  1.24425995E+00  1.71377201E+01 -4.59524989E-02  0.00000000E+00
 1  5.20099998E-01  3.16249989E-02  0.00000000E+00  1.56128168E+00  1.19820607E+00 -1.07864579E-02  0.00000000E+00  1.19825470E+00  1.94266033E+00  1.24427283E+00  1.71391525E+01 -4.59524989E-02  0.00000000E+00
 1  5.20099998E-01  3.18749994E-02  0.00000000E+00  1.56127012E+00  1.19808447E+00 -1.09207034E-02  0.00000000E+00  1.19813418E+00  1.94266605E+00  1.24428558E+00  1.71405849E+01 -4.59524989E-02  0.00000000E+00
 1  5.20099998E-01  3.21249999E-02  0.00000000E+00  1.56125867E+00  1.19796276E+00 -1.10549489E-02  0.00000000E+00  1.19801378E+00  1.94267178E+00  1.24429846E+00  1.71420174E+01 -4.59524989E-02  0.00000000E+00
 1  5.20099998E-01  3.23750004E-02  0.00000000E+00  1.56124723E+00  1.19784105E+00 -1.11891944E-02  0.00000000E+00  1.19789338E+00  1.94267750E+00  1.24431133E+00  1.71434498E+01 -4.59524989E-02  0.00000000E+00
 1  5.20099998E-01  3.26250009E-02  0.00000000E+00  1.56123567E+00  1.19771945E+00 -1.13234399E-02  0.00000000E+00  1.19777298E+00  1.94268322E+00  1.24432409E+00  1.71448822E+01 -4.59524989E-02  0.00000000E+00
 1  5.20099998E-01  3.28750014E-02  0.00000000E+00  1.56122422E+00  1.19759774E+00 -1.14576854E-02  0.00000000E+00  1.19765258E+00  1.94268894E+00  1.24433696E+00  1.71463146E+01 -4.59524989E-02  0.00000000E+00
 1  5.20099998E-01  3.31249982E-02  0.00000000E+00  1.56121266E+00  1.19747615E+00 -1.15919309E-02  0.00000000E+00  1.19753218E+00  1.94269478E+00  1.24434984E+00  1.71477451E+01 -4.59524989E-02  0.00000000E+00
 1  5.20099998E-01  3.33749987E-02  0.00000000E+00  1.56120121E+00  1.19735444E+00 -1.17261764E-02  0.00000000E+00  1.19741178E+00  1.94270051E+00  1.24436259E+00  1.71491776E+01 -4.59524989E-02  0.00000000E+00
 1  5.20099998E-01  3.36249992E-02  0.00000000E+00  1.56118977E+00  1.19723272E+00 -1.18604219E-02  0.00000000E+00  1.19729149E+00  1.94270623E+00  1.24437547E+00  1.71506100E+01 -4.59524989E-02  0.00000000E+00
 1  5.20099998E-01  3.38749997E-02  0.00000000E+00  1.56117821E+00  1.19711113E+00 -1.19946674E-02  0.00000000E+00  1.19717121E+00  1.94271195E+00  1.24438834E+00  1.71520424E+01 -4.59524989E-02  0.00000000E+00
 1  5.20099998E-01  3.41250002E-02  0.00000000E+00  1.56116676E+00  1.19698942E+00 -1.21289128E-02  0.00000000E+00  1.19705081E+00  1.94271767E+00  1.24440110E+00  1.71534748E+01 -4.59524989E-02  0.00000000E+00
 1  5.20099998E-01  3.43750007E-02  0.00000000E+00  1.56115532E+00  1.19686770E+00 -1.22631583E-02  0.00000000E+00  1.19693053E+00  1.94272339E+00  1.24441397E+00  1.71549072E+01 -4.59524989E-02  0.00000000E+00
 1  5.20099998E-01  3.46250013E-02  0.00000000E+00  1.56114376E+00  1.19674611E+00 -1.23974038E-02  0.00000000E+00  1.19681025E+00  1.94272912E+00  1.24442685E+00  1.71563396E+01 -4.59524989E-02  0.00000000E+00
 1  5.20099998E-01  3.48750018E-02  0.00000000E+00  1.56113231E+00  1.19662440E+00 -1.25316493E-02  0.00000000E+00  1.19668996E+00  1.94273496E+00  1.24443960E+00  1.71577702E+01 -4.59524989E-02  0.00000000E+00