# CoordinateSystem = xByUzL
# Units = ISS
VARIABLES = "Found","X","Y","Z","Density","VelocityX","VelocityY","VelocityZ","VelocityMag","Pressure","Temperature","DensityGradientX","DensityGradientY","DensityGradientZ"
ZONE T="t = 7.00000000E-01",I=4000,SOLUTIONTIME=7.00000000E-01
 1  5.20099998E-01  1.25000006E-04  0.00000000E+00  1.86519980E+00  9.35693920E-01 -3.82759534E-02  0.00000000E+00  9.36476469E-01  2.49223399E+00  1.33617532E+00  1.39556818E+01 -1.54062819E+00  0.00000000E+00
 1  5.20099998E-01  3.75000003E-04  0.00000000E+00  1.86481464E+00  9.36698675E-01 -3.74476574E-02  0.00000000E+00  9.37446952E-01  2.49107838E+00  1.33583152E+00  1.39463539E+01 -1.54062819E+00  0.00000000E+00
 1  5.20099998E-01  6.24999986E-04  0.00000000E+00  1.86442959E+00  9.37703490E-01 -3.66193615E-02  0.00000000E+00  9.38418210E-01  2.48992300E+00  1.33548784E+00  1.39370260E+01 -1.54062819E+00  0.00000000E+00
 1  5.20099998E-01  8.75000027E-04  0.00000000E+00  1.86404443E+00  9.38708246E-01 -3.57910655E-02  0.00000000E+00  9.39390302E-01  2.48876786E+00  1.33514404E+00  1.39276991E+01 -1.54062819E+00  0.00000000E+00
 1  5.20099998E-01  1.12499995E-03  0.00000000E+00  1.86365926E+00  9.39713001E-01 -3.49627733E-02  0.00000000E+00  9.40363228E-01  2.48761296E+00  1.33480024E+00  1.39183712E+01 -1.54062819E+00  0.00000000E+00
 1  5.20099998E-01  1.37499999E-03  0.00000000E+00  1.86327410E+00  9.40717816E-01 -3.41344774E-02  0.00000000E+00  9.41336870E-01  2.48645830E+00  1.33445656E+00  1.39090433E+01 -1.54062819E+00  0.00000000E+00
 1  5.20099998E-01  1.62500003E-03  0.00000000E+00  1.86288893E+00  9.41722572E-01 -3.33061814E-02  0.00000000E+00  9.42311347E-01  2.48530388E+00  1.33411276E+00  1.38997154E+01 -1.54062819E+00  0.00000000E+00
 1  5.20099998E-01  1.87499996E-03  0.00000000E+00  1.86250377E+00  9.42727327E-01 -3.24778855E-02  0.00000000E+00  9.43286598E-01  2.48414969E+00  1.33376896E+00  1.38903875E+01 -1.54062819E+00  0.00000000E+00
 1  5.20099998E-01  2.12500012E-03  0.00000000E+00  1.86211860E+00  9.43732083E-01 -3.16495895E-02  0.00000000E+00  9.44262683E-01  2.48299599E+00  1.33342528E+00  1.38810596E+01 -1.54062819E+00  0.00000000E+00
 1  5.20099998E-01  2.37499992E-03  0.00000000E+00  1.86173344E+00  9.44736898E-01 -3.08212955E-02  0.00000000E+00  9.45239484E-01  2.48184228E+00  1.33308148E+00  1.38717327E+01 -1.54062819E+00  0.00000000E+00
 1  5.20099998E-01  2.62499996E-03  0.00000000E+00  1.86134827E+00  9.45741653E-01 -2.99929995E-02  0.00000000E+00  9.46217120E-01  2.48068905E+00  1.33273768E+00  1.38624048E+01 -1.54062819E+00  0.00000000E+00
 1  5.20099998E-01  2.87500001E-03  0.00000000E+00  1.86096311E+00  9.46746409E-01 -2.91647036E-02  0.00000000E+00  9.47195530E-01  2.47953606E+00  1.33239400E+00  1.38530769E+01 -1.54062819E+00  0.00000000E+00
 1  5.20099998E-01  3.12500005E-03  0.00000000E+00  1.86057794E+00  9.47751224E-01 -2.83364076E-02  0.00000000E+00  9.48174715E-01  2.47838330E+00  1.33205020E+00  1.38437490E+01 -1.54062819E+00  0.00000000E+00
 1  5.20099998E-01  3.37500009E-03  0.00000000E+00  1.86019278E+00  9.48755980E-01 -2.75081135E-02  0.00000000E+00  9.49154675E-01  2.47723079E+00  1.33170640E+00  1.38344212E+01 -1.54062819E+00  0.00000000E+00
 1  5.20099998E-01  3.62499990E-03  0.00000000E+00  1.85980761E+00  9.49760735E-01 -2.66798176E-02  0.00000000E+00  9.50135410E-01  2.47607851E+00  1.33136272E+00  1.38250933E+01 -1.54062819E+00  0.00000000E+00
 1  5.20099998E-01  3.87499994E-03  0.00000000E+00  1.85942245E+00  9.50765550E-01 -2.58515216E-02  0.00000000E+00  9.51116920E-01  2.47492647E+00  1.33101892E+00  1.38157654E+01 -1.54062819E+00  0.00000000E+00
 1  5.20099998E-01  4.12499998E-03  0.00000000E+00  1.85903728E+00  9.51770306E-01 -2.50232276E-02  0.00000000E+00  9.52099204E-01  2.47377491E+00  1.33067513E+00  1.38064384E+01 -1.54062819E+00  0.00000000E+00
 1  5.20099998E-01  4.37500002E-03  0.00000000E+00  1.85865223E+00  9.52775061E-01 -2.41949316E-02  0.00000000E+00  9.53082204E-01  2.47262335E+00  1.33033144E+00  1.37971106E+01 -1.54062819E+00  0.00000000E+00
 1  5.20099998E-01  4.62500006E-03  0.00000000E+00  1.85826707E+00  9.53779817E-01 -2.33666357E-02  0.00000000E+00  9.54066038E-01  2.47147226E+00  1.32998765E+00  1.37877827E+01 -1.54062819E+00  0.00000000E+00
 1  5.20099998E-01  4.87500010E-03  0.00000000E+00  1.85788190E+00  9.54784632E-01 -2.25383397E-02  0.00000000E+00  9.55050588E-01  2.47032118E+00  1.32964385E+00  1.37784548E+01 -1.54062819E+00  0.00000000E+00
 1  5.20099998E-01  5.12500014E-03  0.00000000E+00  1.85749674E+00  9.55789387E-01 -2.17100456E-02  0.00000000E+00  9.56035912E-01  2.46917057E+00  1.32930017E+00  1.37691269E+01 -1.54062819E+00  0.00000000E+00
 1  5.20099998E-01  5.37500018E-03  0.00000000E+00  1.85711157E+00  9.56794143E-01 -2.08817497E-02  0.00000000E+00  9.57022011E-01  2.46802020E+00  1.32895637E+00  1.37597990E+01 -1.54062819E+00  0.00000000E+00
 1  5.20099998E-01  5.62500022E-03  0.00000000E+00  1.85672641E+00  9.57798958E-01 -2.00534537E-02  0.00000000E+00  9.58008826E-01  2.46687007E+00  1.32861257E+00  1.37504711E+01 -1.54062819E+00  0.00000000E+00
 1  5.20099998E-01  5.87499980E-03  0.00000000E+00  1.85634124E+00  9.58803713E-01 -1.92251597E-02  0.00000000E+00  9.58996415E-01  2.46572018E+00  1.32826889E+00  1.37411442E+01 -1.54062819E+00  0.00000000E+00
 1  5.20099998E-01  6.12499984E-03  0.00000000E+00  1.85595608E+00  9.59808469E-01 -1.83968637E-02  0.00000000E+00  9.59984779E-01  2.46457052E+00  1.32792509E+00  1.37318163E+01 -1.54062819E+00  0.00000000E+00
 1  5.20099998E-01  6.37499988E-03  0.00000000E+00  1.85557091E+00  9.60813224E-01 -1.75685678E-02  0.00000000E+00  9.60973859E-01  2.46342134E+00  1.32758129E+00  1.37224884E+01 -1.54062819E+00  0.00000000E+00
 1  5.20099998E-01  6.62499992E-03  0.00000000E+00  1.85518575E+00  9.61818039E-01 -1.67402718E-02  0.00000000E+00  9.61963713E-01  2.46227217E+00  1.32723761E+00  1.37131605E+01 -1.54062819E+00  0.00000000E+00
 1  5.20099998E-01  6.87499996E-03  0.00000000E+00  1.85480058E+00  9.62822795E-01 -1.59119777E-02  0.00000000E+00  9.62954283E-01  2.46112347E+00  1.32689381E+00  1.37038326E+01 -1.54062819E+00  0.00000000E+00
 1  5.20099998E-01  7.12500000E-03  0.00000000E+00  1.85441542E+00  9.63827550E-01 -1.50836818E-02  0.00000000E+00  9.63945568E-01  2.45997477E+00  1.32655001E+00  1.36945047E+01 -1.54062819E+00  0.00000000E+00
 1  5.20099998E-01  7.37500004E-03  0.00000000E+00  1.85403025E+00  9.64832366E-01 -1.42553858E-02  0.00000000E+00  9.64937627E-01  2.45882654E+00  1.32620633E+00  1.36851768E+01 -1.54062819E+00  0.00000000E+00
 1  5.20099998E-01  7.62500009E-03  0.00000000E+00  1.85364509E+00  9.65837121E-01 -1.34270908E-02  0.00000000E+00  9.65930462E-01  2.45767856E+00  1.32586253E+00  1.36758499E+01 -1.54062819E+00  0.00000000E+00
 1  5.20099998E-01  7.87500013E-03  0.00000000E+00  1.85326004E+00  9.66841877E-01 -1.25987958E-02  0.00000000E+00  9.66923952E-01  2.45653081E+00  1.32551873E+00  1.36665220E+01 -1.54062819E+00  0.00000000E+00
 1  5.20099998E-01  8.12499970E-03  0.00000000E+00  1.85287488E+00  9.67846632E-01 -1.17704999E-02  0.00000000E+00  9.67918217E-01  2.45538330E+00  1.32517505E+00  1.36571941E+01 -1.54062819E+00  0.00000000E+00
 1  5.20099998E-01  8.37500021E-03  0.00000000E+00  1.85248971E+00  9.68851447E-01 -1.09422049E-02  0.00000000E+00  9.68913198E-01  2.45423627E+00  1.32483125E+00  1.36478662E+01 -1.54062819E+00  0.00000000E+00
 1  5.20099998E-01  8.62499978E-03  0.00000000E+00  1.85210454E+00  9.69856203E-01 -1.01139089E-02  0.00000000E+00  9.69908953E-01  2.45308924E+00  1.32448745E+00  1.36385384E+01 -1.54062819E+00  0.00000000E+00
 1  5.20099998E-01  8.87500029E-03  0.00000000E+00  1.85171938E+00  9.70860958E-01 -9.28561389E-03  0.00000000E+00  9.70905364E-01  2.45194244E+00  1.32414377E+00  1.36292105E+01 -1.54062819E+00  0.00000000E+00
 1  5.20099998E-01  9.12499987E-03  0.00000000E+00  1.85133421E+00  9.71865773E-01 -8.45731795E-03  0.00000000E+00  9.71902549E-01  2.45079613E+00  1.32379997E+00  1.36198835E+01 -1.54062819E+00  0.00000000E+00
 1  5.20099998E-01  9.37500037E-03  0.00000000E+00  1.85094905E+00  9.72870529E-01 -7.62902293E-03  0.00000000E+00  9.72900450E-01  2.44965005E+00  1.32345617E+00  1.36105556E+01 -1.54062819E+00  0.00000000E+00
 1  5.20099998E-01  9.62499995E-03  0.00000000E+00  1.85056388E+00  9.73875284E-01 -6.80072745E-03  0.00000000E+00  9.73899066E-01  2.44850397E+00  1.32311249E+00  1.36012278E+01 -1.54062819E+00  0.00000000E+00
 1  5.20099998E-01  9.87500045E-03  0.00000000E+00  1.85017872E+00  9.74880040E-01 -5.97243197E-03  0.00000000E+00  9.74898338E-01  2.44735837E+00  1.32276869E+00  1.35918999E+01 -1.54062819E+00  0.00000000E+00
 1  5.20099998E-01  1.01250000E-02  0.00000000E+00  1.85006392E+00  9.75303948E-01 -5.67075517E-03  0.00000000E+00  9.75320458E-01  2.44690251E+00  1.32260430E+00  1.35768118E+01  6.22301638E-01  0.00000000E+00
 1  5.20099998E-01  1.03749996E-02  0.00000000E+00  1.85021949E+00  9.75146949E-01 -5.89569705E-03  0.00000000E+00  9.75164771E-01  2.44713616E+00  1.32261944E+00  1.35559645E+01  6.22301638E-01  0.00000000E+00
 1  5.20099998E-01  1.06250001E-02  0.00000000E+00  1.85037506E+00  9.74990010E-01 -6.12063846E-03  0.00000000E+00  9.75009203E-01  2.44736981E+00  1.32263446E+00  1.35351162E+01  6.22301638E-01  0.00000000E+00
 1  5.20099998E-01  1.08749997E-02  0.00000000E+00  1.85053062E+00  9.74833012E-01 -6.34558033E-03  0.00000000E+00  9.74853635E-01  2.44760346E+00  1.32264960E+00  1.35142679E+01  6.22301638E-01  0.00000000E+00
 1  5.20099998E-01  1.11250002E-02  0.00000000E+00  1.85068619E+00  9.74676013E-01 -6.57052174E-03  0.00000000E+00  9.74698186E-01  2.44783711E+00  1.32266462E+00  1.34934206E+01  6.22301638E-01  0.00000000E+00
 1  5.20099998E-01  1.13749998E-02  0.00000000E+00  1.85084176E+00  9.74519014E-01 -6.79546362E-03  0.00000000E+00  9.74542737E-01  2.44807076E+00  1.32267964E+00  1.34725723E+01  6.22301638E-01  0.00000000E+00
 1  5.20099998E-01  1.16250003E-02  0.00000000E+00  1.85099733E+00  9.74362075E-01 -7.02040503E-03  0.00000000E+00  9.74387348E-01  2.44830465E+00  1.32269478E+00  1.34517241E+01  6.22301638E-01  0.00000000E+00
 1  5.20099998E-01  1.18749999E-02  0.00000000E+00  1.85115302E+00  9.74205077E-01 -7.24534690E-03  0.00000000E+00  9.74232018E-01  2.44853830E+00  1.32270980E+00  1.34308767E+01  6.22301638E-01  0.00000000E+00
 1  5.20099998E-01  1.21250004E-02  0.00000000E+00  1.85130858E+00  9.74048078E-01 -7.47028878E-03  0.00000000E+00  9.74076748E-01  2.44877195E+00  1.32272494E+00  1.34100285E+01  6.22301638E-01  0.00000000E+00
 1  5.20099998E-01  1.23749999E-02  0.00000000E+00  1.85146415E+00  9.73891079E-01 -7.69523019E-03  0.00000000E+00  9.73921478E-01  2.44900560E+00  1.32273996E+00  1.33891802E+01  6.22301638E-01  0.00000000E+00
 1  5.20099998E-01  1.26250004E-02  0.00000000E+00  1.85161972E+00  9.73734140E-01 -7.92017207E-03  0.00000000E+00  9.73766327E-01  2.44923925E+00  1.32275510E+00  1.33683329E+01  6.22301638E-01  0.00000000E+00
 1  5.20099998E-01  1.28750000E-02  0.00000000E+00  1.85177529E+00  9.73577142E-01 -8.14511348E-03  0.00000000E+00  9.73611236E-01  2.44947290E+00  1.32277012E+00  1.33474846E+01  6.22301638E-01  0.00000000E+00
 1  5.20099998E-01  1.31249996E-02  0.00000000E+00  1.85193086E+00  9.73420143E-01 -8.37005489E-03  0.00000000E+00  9.73456144E-01  2.44970679E+00  1.32278514E+00  1.33266363E+01  6.22301638E-01  0.00000000E+00
 1  5.20099998E-01  1.33750001E-02  0.00000000E+00  1.85208642E+00  9.73263144E-01 -8.59499723E-03  0.00000000E+00  9.73301113E-01  2.44994044E+00  1.32280028E+00  1.33057890E+01  6.22301638E-01  0.00000000E+00
 1  5.20099998E-01  1.36249997E-02  0.00000000E+00  1.85224199E+00  9.73106205E-01 -8.81993864E-03  0.00000000E+00  9.73146141E-01  2.45017409E+00  1.32281530E+00  1.32849407E+01  6.22301638E-01  0.00000000E+00
 1  5.20099998E-01  1.38750002E-02  0.00000000E+00  1.85239756E+00  9.72949207E-01 -9.04488005E-03  0.00000000E+00  9.72991228E-01  2.45040774E+00  1.32283044E+00  1.32640934E+01  6.22301638E-01  0.00000000E+00
 1  5.20099998E-01  1.41249998E-02  0.00000000E+00  1.85255313E+00  9.72792208E-01 -9.26982239E-03  0.00000000E+00  9.72836375E-01  2.45064163E+00  1.32284546E+00  1.32432451E+01  6.22301638E-01  0.00000000E+00
 1  5.20099998E-01  1.43750003E-02  0.00000000E+00  1.85270870E+00  9.72635210E-01 -9.49476380E-03  0.00000000E+00  9.72681582E-01  2.45087528E+00  1.32286060E+00  1.32223969E+01  6.22301638E-01  0.00000000E+00
 1  5.20099998E-01  1.46249998E-02  0.00000000E+00  1.85286427E+00  9.72478271E-01 -9.71970521E-03  0.00000000E+00  9.72526848E-01  2.45110893E+00  1.32287562E+00  1.32015495E+01  6.22301638E-01  0.00000000E+00
 1  5.20099998E-01  1.48750003E-02  0.00000000E+00  1.85301983E+00  9.72321272E-01 -9.94464662E-03  0.00000000E+00  9.72372115E-01  2.45134282E+00  1.32289064E+00  1.31807013E+01  6.22301638E-01  0.00000000E+00
 1  5.20099998E-01  1.51249999E-02  0.00000000E+00  1.85317540E+00  9.72164273E-01 -1.01695890E-02  0.00000000E+00  9.72217441E-01  2.45157647E+00  1.32290578E+00  1.31598530E+01  6.22301638E-01  0.00000000E+00
 1  5.20099998E-01  1.53750004E-02  0.00000000E+00  1.85333097E+00  9.72007275E-01 -1.03945304E-02  0.00000000E+00  9.72062886E-01  2.45181012E+00  1.32292080E+00  1.31390057E+01  6.22301638E-01  0.00000000E+00
 1  5.20099998E-01  1.56250000E-02  0.00000000E+00  1.85348654E+00  9.71850336E-01 -1.06194718E-02  0.00000000E+00  9.71908331E-01  2.45204401E+00  1.32293594E+00  1.31181574E+01  6.22301638E-01  0.00000000E+00
 1  5.20099998E-01  1.58750005E-02  0.00000000E+00  1.85364223E+00  9.71693337E-01 -1.08444132E-02  0.00000000E+00  9.71753836E-01  2.45227766E+00  1.32295096E+00  1.30973091E+01  6.22301638E-01  0.00000000E+00
 1  5.20099998E-01  1.61249992E-02  0.00000000E+00  1.85379779E+00  9.71536338E-01 -1.10693555E-02  0.00000000E+00  9.71599400E-01  2.45251155E+00  1.32296610E+00  1.30764618E+01  6.22301638E-01  0.00000000E+00
 1  5.20099998E-01  1.63749997E-02  0.00000000E+00  1.85395336E+00  9.71379340E-01 -1.12942969E-02  0.00000000E+00  9.71445024E-01  2.45274520E+00  1.32298112E+00  1.30556135E+01  6.22301638E-01  0.00000000E+00
 1  5.20099998E-01  1.66250002E-02  0.00000000E+00  1.85410893E+00  9.71222401E-01 -1.15192384E-02  0.00000000E+00  9.71290708E-01  2.45297909E+00  1.32299614E+00  1.30347652E+01  6.22301638E-01  0.00000000E+00
 1  5.20099998E-01  1.68750007E-02  0.00000000E+00  1.85426450E+00  9.71065402E-01 -1.17441807E-02  0.00000000E+00  9.71136391E-01  2.45321274E+00  1.32301128E+00  1.30139179E+01  6.22301638E-01  0.00000000E+00
 1  5.20099998E-01  1.71249993E-02  0.00000000E+00  1.85442007E+00  9.70908403E-01 -1.19691221E-02  0.00000000E+00  9.70982194E-01  2.45344663E+00  1.32302630E+00  1.29930696E+01  6.22301638E-01  0.00000000E+00
 1  5.20099998E-01  1.73749998E-02  0.00000000E+00  1.85457563E+00  9.70751405E-01 -1.21940635E-02  0.00000000E+00  9.70827997E-01  2.45368028E+00  1.32304144E+00  1.29722223E+01  6.22301638E-01  0.00000000E+00
 1  5.20099998E-01  1.76250003E-02  0.00000000E+00  1.85473120E+00  9.70594466E-01 -1.24190049E-02  0.00000000E+00  9.70673859E-01  2.45391417E+00  1.32305646E+00  1.29513741E+01  6.22301638E-01  0.00000000E+00
 1  5.20099998E-01  1.78750008E-02  0.00000000E+00  1.85488677E+00  9.70437467E-01 -1.26439473E-02  0.00000000E+00  9.70519841E-01  2.45414782E+00  1.32307160E+00  1.29305258E+01  6.22301638E-01  0.00000000E+00
 1  5.20099998E-01  1.81249995E-02  0.00000000E+00  1.85504234E+00  9.70280468E-01 -1.28688887E-02  0.00000000E+00  9.70365822E-01  2.45438170E+00  1.32308662E+00  1.29096785E+01  6.22301638E-01  0.00000000E+00
 1  5.20099998E-01  1.83750000E-02  0.00000000E+00  1.85519791E+00  9.70123470E-01 -1.30938301E-02  0.00000000E+00  9.70211864E-01  2.45461559E+00  1.32310164E+00  1.28888302E+01  6.22301638E-01  0.00000000E+00
 1  5.20099998E-01  1.86250005E-02  0.00000000E+00  1.85535347E+00  9.69966531E-01 -1.33187724E-02  0.00000000E+00  9.70057964E-01  2.45484924E+00  1.32311678E+00  1.28679819E+01  6.22301638E-01  0.00000000E+00
 1  5.20099998E-01  1.88749991E-02  0.00000000E+00  1.85550904E+00  9.69809532E-01 -1.35437138E-02  0.00000000E+00  9.69904065E-01  2.45508313E+00  1.32313180E+00  1.28471346E+01  6.22301638E-01  0.00000000E+00
 1  5.20099998E-01  1.91249996E-02  0.00000000E+00  1.85566461E+00  9.69652534E-01 -1.37686552E-02  0.00000000E+00  9.69750285E-01  2.45531702E+00  1.32314694E+00  1.28262863E+01  6.22301638E-01  0.00000000E+00
 1  5.20099998E-01  1.93750001E-02  0.00000000E+00  1.85582018E+00  9.69495535E-01 -1.39935967E-02  0.00000000E+00  9.69596565E-01  2.45555067E+00  1.32316196E+00  1.28054380E+01  6.22301638E-01  0.00000000E+00
 1  5.20099998E-01  1.96250007E-02  0.00000000E+00  1.85597575E+00  9.69338536E-01 -1.42185390E-02  0.00000000E+00  9.69442844E-01  2.45578456E+00  1.32317710E+00  1.27845907E+01  6.22301638E-01  0.00000000E+00
 1  5.20099998E-01  1.98749993E-02  0.00000000E+00  1.85613143E+00  9.69181597E-01 -1.44434804E-02  0.00000000E+00  9.69289184E-01  2.45601845E+00  1.32319212E+00  1.27637424E+01  6.22301638E-01  0.00000000E+00
 1  5.20099998E-01  2.01249998E-02  0.00000000E+00  1.85614395E+00  9.69115674E-01 -1.46879591E-02  0.00000000E+00  9.69227016E-01  2.45600629E+00  1.32317662E+00  1.27461071E+01 -5.21606207E-01  0.00000000E+00
 1  5.20099998E-01  2.03750003E-02  0.00000000E+00  1.85601354E+00  9.69140887E-01 -1.49519751E-02  0.00000000E+00  9.69256222E-01  2.45574808E+00  1.32313049E+00  1.27316847E+01 -5.21606207E-01  0.00000000E+00
 1  5.20099998E-01  2.06250008E-02  0.00000000E+00  1.85588312E+00  9.69166100E-01 -1.52159920E-02  0.00000000E+00  9.69285548E-01  2.45548987E+00  1.32308435E+00  1.27172632E+01 -5.21606207E-01  0.00000000E+00
 1  5.20099998E-01  2.08749995E-02  0.00000000E+00  1.85575271E+00  9.69191253E-01 -1.54800080E-02  0.00000000E+00  9.69314873E-01  2.45523190E+00  1.32303822E+00  1.27028408E+01 -5.21606207E-01  0.00000000E+00
 1  5.20099998E-01  2.11250000E-02  0.00000000E+00  1.85562241E+00  9.69216466E-01 -1.57440249E-02  0.00000000E+00  9.69344318E-01  2.45497370E+00  1.32299209E+00  1.26884184E+01 -5.21606207E-01  0.00000000E+00
 1  5.20099998E-01  2.13750005E-02  0.00000000E+00  1.85549200E+00  9.69241679E-01 -1.60080399E-02  0.00000000E+00  9.69373882E-01  2.45471573E+00  1.32294595E+00  1.26739960E+01 -5.21606207E-01  0.00000000E+00
 1  5.20099998E-01  2.16249991E-02  0.00000000E+00  1.85536158E+00  9.69266891E-01 -1.62720568E-02  0.00000000E+00  9.69403446E-01  2.45445752E+00  1.32289994E+00  1.26595736E+01 -5.21606207E-01  0.00000000E+00
 1  5.20099998E-01  2.18749996E-02  0.00000000E+00  1.85523117E+00  9.69292045E-01 -1.65360719E-02  0.00000000E+00  9.69433129E-01  2.45419955E+00  1.32285380E+00  1.26451511E+01 -5.21606207E-01  0.00000000E+00
 1  5.20099998E-01  2.21250001E-02  0.00000000E+00  1.85510075E+00  9.69317257E-01 -1.68000888E-02  0.00000000E+00  9.69462872E-01  2.45394135E+00  1.32280767E+00  1.26307287E+01 -5.21606207E-01  0.00000000E+00
 1  5.20099998E-01  2.23750006E-02  0.00000000E+00  1.85497034E+00  9.69342470E-01 -1.70641057E-02  0.00000000E+00  9.69492674E-01  2.45368338E+00  1.32276154E+00  1.26163063E+01 -5.21606207E-01  0.00000000E+00
 1  5.20099998E-01  2.26249993E-02  0.00000000E+00  1.85483992E+00  9.69367683E-01 -1.73281208E-02  0.00000000E+00  9.69522536E-01  2.45342541E+00  1.32271540E+00  1.26018839E+01 -5.21606207E-01  0.00000000E+00
 1  5.20099998E-01  2.28749998E-02  0.00000000E+00  1.85470951E+00  9.69392836E-01 -1.75921377E-02  0.00000000E+00  9.69552457E-01  2.45316744E+00  1.32266927E+00  1.25874624E+01 -5.21606207E-01  0.00000000E+00
 1  5.20099998E-01  2.31250003E-02  0.00000000E+00  1.85457909E+00  9.69418049E-01 -1.78561546E-02  0.00000000E+00  9.69582498E-01  2.45290947E+00  1.32262313E+00  1.25730400E+01 -5.21606207E-01  0.00000000E+00
 1  5.20099998E-01  2.33750008E-02  0.00000000E+00  1.85444880E+00  9.69443262E-01 -1.81201696E-02  0.00000000E+00  9.69612598E-01  2.45265126E+00  1.32257712E+00  1.25586176E+01 -5.21606207E-01  0.00000000E+00
 1  5.20099998E-01  2.36249994E-02  0.00000000E+00  1.85431838E+00  9.69468474E-01 -1.83841866E-02  0.00000000E+00  9.69642758E-01  2.45239329E+00  1.32253098E+00  1.25441952E+01 -5.21606207E-01  0.00000000E+00
 1  5.20099998E-01  2.38750000E-02  0.00000000E+00  1.85418797E+00  9.69493628E-01 -1.86482016E-02  0.00000000E+00  9.69672978E-01  2.45213532E+00  1.32248485E+00  1.25297728E+01 -5.21606207E-01  0.00000000E+00
 1  5.20099998E-01  2.41250005E-02  0.00000000E+00  1.85405755E+00  9.69518840E-01 -1.89122185E-02  0.00000000E+00  9.69703257E-01  2.45187736E+00  1.32243872E+00  1.25153503E+01 -5.21606207E-01  0.00000000E+00
 1  5.20099998E-01  2.43749991E-02  0.00000000E+00  1.85392714E+00  9.69544053E-01 -1.91762354E-02  0.00000000E+00  9.69733655E-01  2.45161963E+00  1.32239258E+00  1.25009279E+01 -5.21606207E-01  0.00000000E+00
 1  5.20099998E-01  2.46249996E-02  0.00000000E+00  1.85379672E+00  9.69569266E-01 -1.94402505E-02  0.00000000E+00  9.69764113E-01  2.45136166E+00  1.32234645E+00  1.24865055E+01 -5.21606207E-01  0.00000000E+00
 1  5.20099998E-01  2.48750001E-02  0.00000000E+00  1.85366631E+00  9.69594419E-01 -1.97042674E-02  0.00000000E+00  9.69794631E-01  2.45110369E+00  1.32230031E+00  1.24720831E+01 -5.21606207E-01  0.00000000E+00
 1  5.20099998E-01  2.51250006E-02  0.00000000E+00  1.85353589E+00  9.69619632E-01 -1.99682843E-02  0.00000000E+00  9.69825208E-01  2.45084572E+00  1.32225418E+00  1.24576616E+01 -5.21606207E-01  0.00000000E+00
 1  5.20099998E-01  2.53749993E-02  0.00000000E+00  1.85340548E+00  9.69644845E-01 -2.02322993E-02  0.00000000E+00  9.69855905E-01  2.45058775E+00  1.32220817E+00  1.24432392E+01 -5.21606207E-01  0.00000000E+00
 1  5.20099998E-01  2.56249998E-02  0.00000000E+00  1.85327518E+00  9.69669998E-01 -2.04963163E-02  0.00000000E+00  9.69886601E-01  2.45033002E+00  1.32216203E+00  1.24288168E+01 -5.21606207E-01  0.00000000E+00
 1  5.20099998E-01  2.58750003E-02  0.00000000E+00  1.85314476E+00  9.69695210E-01 -2.07603313E-02  0.00000000E+00  9.69917417E-01  2.45007205E+00  1.32211590E+00  1.24143944E+01 -5.21606207E-01  0.00000000E+00
 1  5.20099998E-01  2.61250008E-02  0.00000000E+00  1.85301435E+00  9.69720423E-01 -2.10243482E-02  0.00000000E+00  9.69948292E-01  2.44981432E+00  1.32206976E+00  1.23999720E+01 -5.21606207E-01  0.00000000E+00
 1  5.20099998E-01  2.63749994E-02  0.00000000E+00  1.85288393E+00  9.69745636E-01 -2.12883651E-02  0.00000000E+00  9.69979227E-01  2.44955635E+00  1.32202363E+00  1.23855495E+01 -5.21606207E-01  0.00000000E+00
 1  5.20099998E-01  2.66249999E-02  0.00000000E+00  1.85275352E+00  9.69770789E-01 -2.15523802E-02  0.00000000E+00  9.70010281E-01  2.44929862E+00  1.32197750E+00  1.23711271E+01 -5.21606207E-01  0.00000000E+00
 1  5.20099998E-01  2.68750004E-02  0.00000000E+00  1.85262311E+00  9.69796002E-01 -2.18163971E-02  0.00000000E+00  9.70041394E-01  2.44904065E+00  1.32193136E+00  1.23567047E+01 -5.21606207E-01  0.00000000E+00
 1  5.20099998E-01  2.71249991E-02  0.00000000E+00  1.85249269E+00  9.69821215E-01 -2.20804121E-02  0.00000000E+00  9.70072508E-01  2.44878292E+00  1.32188535E+00  1.23422823E+01 -5.21606207E-01  0.00000000E+00
 1  5.20099998E-01  2.73749996E-02  0.00000000E+00  1.85236228E+00  9.69846427E-01 -2.23444290E-02  0.00000000E+00  9.70103741E-01  2.44852519E+00  1.32183921E+00  1.23278608E+01 -5.21606207E-01  0.00000000E+00
 1  5.20099998E-01  2.76250001E-02  0.00000000E+00  1.85223186E+00  9.69871581E-01 -2.26084460E-02  0.00000000E+00  9.70135093E-01  2.44826722E+00  1.32179308E+00  1.23134384E+01 -5.21606207E-01  0.00000000E+00
 1  5.20099998E-01  2.78750006E-02  0.00000000E+00  1.85210156E+00  9.69896793E-01 -2.28724610E-02  0.00000000E+00  9.70166445E-01  2.44800949E+00  1.32174695E+00  1.22990160E+01 -5.21606207E-01  0.00000000E+00
 1  5.20099998E-01  2.81249993E-02  0.00000000E+00  1.85197115E+00  9.69922006E-01 -2.31364779E-02  0.00000000E+00  9.70197916E-01  2.44775176E+00  1.32170081E+00  1.22845936E+01 -5.21606207E-01  0.00000000E+00
 1  5.20099998E-01  2.83749998E-02  0.00000000E+00  1.85184073E+00  9.69947219E-01 -2.34004948E-02  0.00000000E+00  9.70229447E-01  2.44749403E+00  1.32165468E+00  1.22701712E+01 -5.21606207E-01  0.00000000E+00
 1  5.20099998E-01  2.86250003E-02  0.00000000E+00  1.85171032E+00  9.69972372E-01 -2.36645099E-02  0.00000000E+00  9.70261037E-01  2.44723630E+00  1.32160854E+00  1.22557487E+01 -5.21606207E-01  0.00000000E+00
 1  5.20099998E-01  2.88750008E-02  0.00000000E+00  1.85157990E+00  9.69997585E-01 -2.39285268E-02  0.00000000E+00  9.70292687E-01  2.44697857E+00  1.32156253E+00  1.22413263E+01 -5.21606207E-01  0.00000000E+00
 1  5.20099998E-01  2.91249994E-02  0.00000000E+00  1.85144949E+00  9.70022798E-01 -2.41925418E-02  0.00000000E+00  9.70324397E-01  2.44672084E+00  1.32151639E+00  1.22269039E+01 -5.21606207E-01  0.00000000E+00
 1  5.20099998E-01  2.93749999E-02  0.00000000E+00  1.85131907E+00  9.70048010E-01 -2.44565587E-02  0.00000000E+00  9.70356226E-01  2.44646311E+00  1.32147026E+00  1.22124815E+01 -5.21606207E-01  0.00000000E+00
 1  5.20099998E-01  2.96250004E-02  0.00000000E+00  1.85118866E+00  9.70073164E-01 -2.47205757E-02  0.00000000E+00  9.70388114E-01  2.44620538E+00  1.32142413E+00  1.21980600E+01 -5.21606207E-01  0.00000000E+00
 1  5.20099998E-01  2.98749991E-02  0.00000000E+00  1.85105824E+00  9.70098376E-01 -2.49845907E-02  0.00000000E+00  9.70420063E-01  2.44594765E+00  1.32137799E+00  1.21836376E+01 -5.21606207E-01  0.00000000E+00
 1  5.20099998E-01  3.01249996E-02  0.00000000E+00  1.85091341E+00  9.70163167E-01 -2.52612457E-02  0.00000000E+00  9.70491946E-01  2.44563317E+00  1.32131147E+00  1.21599255E+01 -6.37249410E-01  0.00000000E+00
 1  5.20099998E-01  3.03750001E-02  0.00000000E+00  1.85075414E+00  9.70267475E-01 -2.55505368E-02  0.00000000E+00  9.70603883E-01  2.44526172E+00  1.32122457E+00  1.21269236E+01 -6.37249410E-01  0.00000000E+00
 1  5.20099998E-01  3.06250006E-02  0.00000000E+00  1.85059488E+00  9.70371842E-01 -2.58398280E-02  0.00000000E+00  9.70715821E-01  2.44489050E+00  1.32113767E+00  1.20939217E+01 -6.37249410E-01  0.00000000E+00
 1  5.20099998E-01  3.08749992E-02  0.00000000E+00  1.85043550E+00  9.70476210E-01 -2.61291191E-02  0.00000000E+00  9.70827878E-01  2.44451904E+00  1.32105064E+00  1.20609198E+01 -6.37249410E-01  0.00000000E+00
 1  5.20099998E-01  3.11249997E-02  0.00000000E+00  1.85027623E+00  9.70580518E-01 -2.64184102E-02  0.00000000E+00  9.70939994E-01  2.44414783E+00  1.32096374E+00  1.20279179E+01 -6.37249410E-01  0.00000000E+00
 1  5.20099998E-01  3.13749984E-02  0.00000000E+00  1.85011685E+00  9.70684886E-01 -2.67077014E-02  0.00000000E+00  9.71052229E-01  2.44377637E+00  1.32087684E+00  1.19949160E+01 -6.37249410E-01  0.00000000E+00
 1  5.20099998E-01  3.16249989E-02  0.00000000E+00  1.84995759E+00  9.70789254E-01 -2.69969944E-02  0.00000000E+00  9.71164525E-01  2.44340515E+00  1.32078993E+00  1.19619141E+01 -6.37249410E-01  0.00000000E+00
 1  5.20099998E-01  3.18749994E-02  0.00000000E+00  1.84979820E+00  9.70893562E-01 -2.72862855E-02  0.00000000E+00  9.71276939E-01  2.44303393E+00  1.32070291E+00  1.19289122E+01 -6.37249410E-01  0.00000000E+00
 1  5.20099998E-01  3.21249999E-02  0.00000000E+00  1.84963894E+00  9.70997930E-01 -2.75755767E-02  0.00000000E+00  9.71389413E-01  2.44266272E+00  1.32061601E+00  1.18959103E+01 -6.37249410E-01  0.00000000E+00
 1  5.20099998E-01  3.23750004E-02  0.00000000E+00  1.84947968E+00  9.71102297E-01 -2.78648678E-02  0.00000000E+00  9.71501946E-01  2.44229174E+00  1.32052910E+00  1.18629093E+01 -6.37249410E-01  0.00000000E+00
 1  5.20099998E-01  3.26250009E-02  0.00000000E+00  1.84932029E+00  9.71206605E-01 -2.81541590E-02  0.00000000E+00  9.71614599E-01  2.44192052E+00  1.32044208E+00  1.18299074E+01 -6.37249410E-01  0.00000000E+00
 1  5.20099998E-01  3.28750014E-02  0.00000000E+00  1.84916103E+00  9.71310973E-01 -2.84434501E-02  0.00000000E+00  9.71727312E-01  2.44154930E+00  1.32035518E+00  1.17969055E+01 -6.37249410E-01  0.00000000E+00
 1  5.20099998E-01  3.31249982E-02  0.00000000E+00  1.84900165E+00  9.71415341E-01 -2.87327413E-02  0.00000000E+00  9.71840143E-01  2.44117832E+00  1.32026827E+00  1.17639036E+01 -6.37249410E-01  0.00000000E+00
 1  5.20099998E-01  3.33749987E-02  0.00000000E+00  1.84884238E+00  9.71519649E-01 -2.90220324E-02  0.00000000E+00  9.71953034E-01  2.44080710E+00  1.32018137E+00  1.17309017E+01 -6.37249410E-01  0.00000000E+00
 1  5.20099998E-01  3.36249992E-02  0.00000000E+00  1.84868312E+00  9.71624017E-01 -2.93113254E-02  0.00000000E+00  9.72066045E-01  2.44043612E+00  1.32009435E+00  1.16978998E+01 -6.37249410E-01  0.00000000E+00
 1  5.20099998E-01  3.38749997E-02  0.00000000E+00  1.84852374E+00  9.71728384E-01 -2.96006165E-02  0.00000000E+00  9.72179115E-01  2.44006515E+00  1.32000744E+00  1.16648979E+01 -6.37249410E-01  0.00000000E+00
 1  5.20099998E-01  3.41250002E-02  0.00000000E+00  1.84836447E+00  9.71832693E-01 -2.98899077E-02  0.00000000E+00  9.72292244E-01  2.43969417E+00  1.31992054E+00  1.16318960E+01 -6.37249410E-01  0.00000000E+00
 1  5.20099998E-01  3.43750007E-02  0.00000000E+00  1.84820509E+00  9.71937060E-01 -3.01791988E-02  0.00000000E+00  9.72405493E-01  2.43932319E+00  1.31983364E+00  1.15988941E+01 -6.37249410E-01  0.00000000E+00
 1  5.20099998E-01  3.46250013E-02  0.00000000E+00  1.84804583E+00  9.72041368E-01 -3.04684900E-02  0.00000000E+00  9.72518802E-01  2.43895221E+00  1.31974661E+00  1.15658922E+01 -6.37249410E-01  0.00000000E+00
 1  5.20099998E-01  3.48750018E-02  0.00000000E+00  1.84788656E+00  9.72145736E-01 -3.07577811E-02  0.00000000E+00  9.72632170E-01  2.43858147E+00  1.31965971E+00  1.15328903E+01 -6.37249410E-01  0.00000000E+00