# CoordinateSystem = xByUzL
# Units = ISS
VARIABLES = "Found","X","Y","Z","Density","VelocityX","VelocityY","VelocityZ","VelocityMag","Pressure","Temperature","DensityGradientX","DensityGradientY","DensityGradientZ"
ZONE T="t = 7.00000000E-01",I=4000,SOLUTIONTIME=7.00000000E-01
 1  1.05009997E+00  1.25000006E-04  0.00000000E+00  1.84540021E+00  9.60663855E-01  1.69441002E-04  0.00000000E+00  9.60663915E-01  2.43603921E+00  1.32006013E+00  1.13629773E-01  1.03483152E+00  0.00000000E+00
 1  1.05009997E+00  3.75000003E-04  0.00000000E+00  1.84565890E+00  9.61349130E-01  3.78353958E-04  0.00000000E+00  9.61349189E-01  2.43601179E+00  1.31986022E+00  1.13360941E-01  1.03483152E+00  0.00000000E+00
 1  1.05009997E+00  6.24999986E-04  0.00000000E+00  1.84591758E+00  9.62034345E-01  5.87266928E-04  0.00000000E+00  9.62034523E-01  2.43598437E+00  1.31966031E+00  1.13092110E-01  1.03483152E+00  0.00000000E+00
 1  1.05009997E+00  8.75000027E-04  0.00000000E+00  1.84617627E+00  9.62719560E-01  7.96179927E-04  0.00000000E+00  9.62719917E-01  2.43595672E+00  1.31946051E+00  1.12823278E-01  1.03483152E+00  0.00000000E+00
 1  1.05009997E+00  1.12499995E-03  0.00000000E+00  1.84643507E+00  9.63404834E-01  1.00509287E-03  0.00000000E+00  9.63405371E-01  2.43592882E+00  1.31926060E+00  1.12554446E-01  1.03483152E+00  0.00000000E+00
 1  1.05009997E+00  1.37499999E-03  0.00000000E+00  1.84669375E+00  9.64090049E-01  1.21400587E-03  0.00000000E+00  9.64090824E-01  2.43590117E+00  1.31906068E+00  1.12285614E-01  1.03483152E+00  0.00000000E+00
 1  1.05009997E+00  1.62500003E-03  0.00000000E+00  1.84695244E+00  9.64775324E-01  1.42291887E-03  0.00000000E+00  9.64776337E-01  2.43587303E+00  1.31886077E+00  1.12016782E-01  1.03483152E+00  0.00000000E+00
 1  1.05009997E+00  1.87499996E-03  0.00000000E+00  1.84721112E+00  9.65460539E-01  1.63183175E-03  0.00000000E+00  9.65461910E-01  2.43584514E+00  1.31866086E+00  1.11747950E-01  1.03483152E+00  0.00000000E+00
 1  1.05009997E+00  2.12500012E-03  0.00000000E+00  1.84746981E+00  9.66145754E-01  1.84074475E-03  0.00000000E+00  9.66147542E-01  2.43581700E+00  1.31846094E+00  1.11479118E-01  1.03483152E+00  0.00000000E+00
 1  1.05009997E+00  2.37499992E-03  0.00000000E+00  1.84772861E+00  9.66831028E-01  2.04965775E-03  0.00000000E+00  9.66833174E-01  2.43578863E+00  1.31826103E+00  1.11210287E-01  1.03483152E+00  0.00000000E+00
 1  1.05009997E+00  2.62499996E-03  0.00000000E+00  1.84798729E+00  9.67516243E-01  2.25857063E-03  0.00000000E+00  9.67518866E-01  2.43576026E+00  1.31806123E+00  1.10941455E-01  1.03483152E+00  0.00000000E+00
 1  1.05009997E+00  2.87500001E-03  0.00000000E+00  1.84824598E+00  9.68201458E-01  2.46748375E-03  0.00000000E+00  9.68204618E-01  2.43573189E+00  1.31786132E+00  1.10672623E-01  1.03483152E+00  0.00000000E+00
 1  1.05009997E+00  3.12500005E-03  0.00000000E+00  1.84850466E+00  9.68886733E-01  2.67639663E-03  0.00000000E+00  9.68890429E-01  2.43570328E+00  1.31766140E+00  1.10403791E-01  1.03483152E+00  0.00000000E+00
 1  1.05009997E+00  3.37500009E-03  0.00000000E+00  1.84876335E+00  9.69571948E-01  2.88530951E-03  0.00000000E+00  9.69576240E-01  2.43567467E+00  1.31746149E+00  1.10134959E-01  1.03483152E+00  0.00000000E+00
 1  1.05009997E+00  3.62499990E-03  0.00000000E+00  1.84902215E+00  9.70257223E-01  3.09422263E-03  0.00000000E+00  9.70262110E-01  2.43564582E+00  1.31726158E+00  1.09866127E-01  1.03483152E+00  0.00000000E+00
 1  1.05009997E+00  3.87499994E-03  0.00000000E+00  1.84928083E+00  9.70942438E-01  3.30313551E-03  0.00000000E+00  9.70948040E-01  2.43561697E+00  1.31706166E+00  1.09597296E-01  1.03483152E+00  0.00000000E+00
 1  1.05009997E+00  4.12499998E-03  0.00000000E+00  1.84953952E+00  9.71627653E-01  3.51204863E-03  0.00000000E+00  9.71634030E-01  2.43558788E+00  1.31686175E+00  1.09328464E-01  1.03483152E+00  0.00000000E+00
 1  1.05009997E+00  4.37500002E-03  0.00000000E+00  1.84979820E+00  9.72312927E-01  3.72096151E-03  0.00000000E+00  9.72320020E-01  2.43555880E+00  1.31666195E+00  1.09059632E-01  1.03483152E+00  0.00000000E+00
 1  1.05009997E+00  4.62500006E-03  0.00000000E+00  1.85005689E+00  9.72998142E-01  3.92987439E-03  0.00000000E+00  9.73006070E-01  2.43552971E+00  1.31646204E+00  1.08790800E-01  1.03483152E+00  0.00000000E+00
 1  1.05009997E+00  4.87500010E-03  0.00000000E+00  1.85031569E+00  9.73683417E-01  4.13878728E-03  0.00000000E+00  9.73692179E-01  2.43550038E+00  1.31626213E+00  1.08521968E-01  1.03483152E+00  0.00000000E+00
 1  1.05009997E+00  5.12500014E-03  0.00000000E+00  1.85043430E+00  9.74091828E-01  4.33982769E-03  0.00000000E+00  9.74101484E-01  2.43543434E+00  1.31614208E+00  1.07877001E-01 -8.53574947E-02  0.00000000E+00
 1  1.05009997E+00  5.37500018E-03  0.00000000E+00  1.85041296E+00  9.74223495E-01  4.53299563E-03  0.00000000E+00  9.74234045E-01  2.43533182E+00  1.31610179E+00  1.06855899E-01 -8.53574947E-02  0.00000000E+00
 1  1.05009997E+00  5.62500022E-03  0.00000000E+00  1.85039163E+00  9.74355161E-01  4.72616311E-03  0.00000000E+00  9.74366605E-01  2.43522954E+00  1.31606162E+00  1.05834790E-01 -8.53574947E-02  0.00000000E+00
 1  1.05009997E+00  5.87499980E-03  0.00000000E+00  1.85037029E+00  9.74486768E-01  4.91933106E-03  0.00000000E+00  9.74499226E-01  2.43512702E+00  1.31602144E+00  1.04813688E-01 -8.53574947E-02  0.00000000E+00
 1  1.05009997E+00  6.12499984E-03  0.00000000E+00  1.85034895E+00  9.74618435E-01  5.11249900E-03  0.00000000E+00  9.74631846E-01  2.43502450E+00  1.31598127E+00  1.03792585E-01 -8.53574947E-02  0.00000000E+00
 1  1.05009997E+00  6.37499988E-03  0.00000000E+00  1.85032761E+00  9.74750102E-01  5.30566648E-03  0.00000000E+00  9.74764526E-01  2.43492198E+00  1.31594098E+00  1.02771476E-01 -8.53574947E-02  0.00000000E+00
 1  1.05009997E+00  6.62499992E-03  0.00000000E+00  1.85030627E+00  9.74881709E-01  5.49883442E-03  0.00000000E+00  9.74897265E-01  2.43481946E+00  1.31590080E+00  1.01750374E-01 -8.53574947E-02  0.00000000E+00
 1  1.05009997E+00  6.87499996E-03  0.00000000E+00  1.85028493E+00  9.75013375E-01  5.69200236E-03  0.00000000E+00  9.75030005E-01  2.43471694E+00  1.31586063E+00  1.00729272E-01 -8.53574947E-02  0.00000000E+00
 1  1.05009997E+00  7.12500000E-03  0.00000000E+00  1.85026360E+00  9.75145042E-01  5.88516984E-03  0.00000000E+00  9.75162804E-01  2.43461466E+00  1.31582034E+00  9.97081622E-02 -8.53574947E-02  0.00000000E+00
 1  1.05009997E+00  7.37500004E-03  0.00000000E+00  1.85024226E+00  9.75276709E-01  6.07833778E-03  0.00000000E+00  9.75295603E-01  2.43451214E+00  1.31578016E+00  9.86870602E-02 -8.53574947E-02  0.00000000E+00
 1  1.05009997E+00  7.62500009E-03  0.00000000E+00  1.85022092E+00  9.75408316E-01  6.27150526E-03  0.00000000E+00  9.75428522E-01  2.43440962E+00  1.31573999E+00  9.76659581E-02 -8.53574947E-02  0.00000000E+00
 1  1.05009997E+00  7.87500013E-03  0.00000000E+00  1.85019958E+00  9.75539982E-01  6.46467321E-03  0.00000000E+00  9.75561380E-01  2.43430710E+00  1.31569982E+00  9.66448486E-02 -8.53574947E-02  0.00000000E+00
 1  1.05009997E+00  8.12499970E-03  0.00000000E+00  1.85017824E+00  9.75671649E-01  6.65784115E-03  0.00000000E+00  9.75694358E-01  2.43420458E+00  1.31565952E+00  9.56237465E-02 -8.53574947E-02  0.00000000E+00
 1  1.05009997E+00  8.37500021E-03  0.00000000E+00  1.85015690E+00  9.75803316E-01  6.85100863E-03  0.00000000E+00  9.75827336E-01  2.43410230E+00  1.31561935E+00  9.46026444E-02 -8.53574947E-02  0.00000000E+00
 1  1.05009997E+00  8.62499978E-03  0.00000000E+00  1.85013556E+00  9.75934923E-01  7.04417657E-03  0.00000000E+00  9.75960374E-01  2.43399978E+00  1.31557918E+00  9.35815349E-02 -8.53574947E-02  0.00000000E+00
 1  1.05009997E+00  8.87500029E-03  0.00000000E+00  1.85011423E+00  9.76066589E-01  7.23734451E-03  0.00000000E+00  9.76093411E-01  2.43389726E+00  1.31553888E+00  9.25604329E-02 -8.53574947E-02  0.00000000E+00
 1  1.05009997E+00  9.12499987E-03  0.00000000E+00  1.85009289E+00  9.76198256E-01  7.43051199E-03  0.00000000E+00  9.76226509E-01  2.43379474E+00  1.31549871E+00  9.15393308E-02 -8.53574947E-02  0.00000000E+00
 1  1.05009997E+00  9.37500037E-03  0.00000000E+00  1.85007155E+00  9.76329923E-01  7.62367994E-03  0.00000000E+00  9.76359665E-01  2.43369246E+00  1.31545854E+00  9.05182213E-02 -8.53574947E-02  0.00000000E+00
 1  1.05009997E+00  9.62499995E-03  0.00000000E+00  1.85005021E+00  9.76461530E-01  7.81684741E-03  0.00000000E+00  9.76492822E-01  2.43358994E+00  1.31541836E+00  8.94971192E-02 -8.53574947E-02  0.00000000E+00
 1  1.05009997E+00  9.87500045E-03  0.00000000E+00  1.85002887E+00  9.76593196E-01  8.01001582E-03  0.00000000E+00  9.76626039E-01  2.43348742E+00  1.31537807E+00  8.84760171E-02 -8.53574947E-02  0.00000000E+00
 1  1.05009997E+00  1.01250000E-02  0.00000000E+00  1.84995294E+00  9.76539910E-01  8.18141457E-03  0.00000000E+00  9.76574183E-01  2.43337727E+00  1.31537259E+00  8.70528445E-02 -5.22537172E-01  0.00000000E+00
 1  1.05009997E+00  1.03749996E-02  0.00000000E+00  1.84982228E+00  9.76301789E-01  8.33104551E-03  0.00000000E+00  9.76337314E-01  2.43325925E+00  1.31540155E+00  8.52276161E-02 -5.22537172E-01  0.00000000E+00
 1  1.05009997E+00  1.06250001E-02  0.00000000E+00  1.84969163E+00  9.76063609E-01  8.48067645E-03  0.00000000E+00  9.76100445E-01  2.43314123E+00  1.31543064E+00  8.34023803E-02 -5.22537172E-01  0.00000000E+00
 1  1.05009997E+00  1.08749997E-02  0.00000000E+00  1.84956098E+00  9.75825429E-01  8.63030739E-03  0.00000000E+00  9.75863576E-01  2.43302298E+00  1.31545973E+00  8.15771520E-02 -5.22537172E-01  0.00000000E+00
 1  1.05009997E+00  1.11250002E-02  0.00000000E+00  1.84943032E+00  9.75587249E-01  8.77993833E-03  0.00000000E+00  9.75626767E-01  2.43290496E+00  1.31548882E+00  7.97519237E-02 -5.22537172E-01  0.00000000E+00
 1  1.05009997E+00  1.13749998E-02  0.00000000E+00  1.84929967E+00  9.75349069E-01  8.92956927E-03  0.00000000E+00  9.75389957E-01  2.43278694E+00  1.31551790E+00  7.79266879E-02 -5.22537172E-01  0.00000000E+00
 1  1.05009997E+00  1.16250003E-02  0.00000000E+00  1.84916914E+00  9.75110888E-01  9.07920115E-03  0.00000000E+00  9.75153148E-01  2.43266892E+00  1.31554699E+00  7.61014596E-02 -5.22537172E-01  0.00000000E+00
 1  1.05009997E+00  1.18749999E-02  0.00000000E+00  1.84903848E+00  9.74872708E-01  9.22883209E-03  0.00000000E+00  9.74916399E-01  2.43255091E+00  1.31557608E+00  7.42762312E-02 -5.22537172E-01  0.00000000E+00
 1  1.05009997E+00  1.21250004E-02  0.00000000E+00  1.84890783E+00  9.74634588E-01  9.37846303E-03  0.00000000E+00  9.74679708E-01  2.43243265E+00  1.31560516E+00  7.24509954E-02 -5.22537172E-01  0.00000000E+00
 1  1.05009997E+00  1.23749999E-02  0.00000000E+00  1.84877717E+00  9.74396408E-01  9.52809397E-03  0.00000000E+00  9.74442959E-01  2.43231463E+00  1.31563425E+00  7.06257671E-02 -5.22537172E-01  0.00000000E+00
 1  1.05009997E+00  1.26250004E-02  0.00000000E+00  1.84864652E+00  9.74158227E-01  9.67772491E-03  0.00000000E+00  9.74206269E-01  2.43219638E+00  1.31566334E+00  6.88005313E-02 -5.22537172E-01  0.00000000E+00
 1  1.05009997E+00  1.28750000E-02  0.00000000E+00  1.84851587E+00  9.73920047E-01  9.82735585E-03  0.00000000E+00  9.73969638E-01  2.43207836E+00  1.31569242E+00  6.69753030E-02 -5.22537172E-01  0.00000000E+00
 1  1.05009997E+00  1.31249996E-02  0.00000000E+00  1.84838533E+00  9.73681867E-01  9.97698680E-03  0.00000000E+00  9.73733008E-01  2.43196034E+00  1.31572151E+00  6.51500747E-02 -5.22537172E-01  0.00000000E+00
 1  1.05009997E+00  1.33750001E-02  0.00000000E+00  1.84825468E+00  9.73443687E-01  1.01266177E-02  0.00000000E+00  9.73496377E-01  2.43184209E+00  1.31575060E+00  6.33248389E-02 -5.22537172E-01  0.00000000E+00
 1  1.05009997E+00  1.36249997E-02  0.00000000E+00  1.84812403E+00  9.73205566E-01  1.02762487E-02  0.00000000E+00  9.73259807E-01  2.43172407E+00  1.31577969E+00  6.14996105E-02 -5.22537172E-01  0.00000000E+00
 1  1.05009997E+00  1.38750002E-02  0.00000000E+00  1.84799337E+00  9.72967386E-01  1.04258796E-02  0.00000000E+00  9.73023236E-01  2.43160582E+00  1.31580877E+00  5.96743785E-02 -5.22537172E-01  0.00000000E+00
 1  1.05009997E+00  1.41249998E-02  0.00000000E+00  1.84786272E+00  9.72729206E-01  1.05755106E-02  0.00000000E+00  9.72786665E-01  2.43148780E+00  1.31583786E+00  5.78491464E-02 -5.22537172E-01  0.00000000E+00
 1  1.05009997E+00  1.43750003E-02  0.00000000E+00  1.84773207E+00  9.72491026E-01  1.07251415E-02  0.00000000E+00  9.72550154E-01  2.43136954E+00  1.31586695E+00  5.60239181E-02 -5.22537172E-01  0.00000000E+00
 1  1.05009997E+00  1.46249998E-02  0.00000000E+00  1.84760141E+00  9.72252846E-01  1.08747724E-02  0.00000000E+00  9.72313643E-01  2.43125129E+00  1.31589603E+00  5.41986860E-02 -5.22537172E-01  0.00000000E+00
 1  1.05009997E+00  1.48750003E-02  0.00000000E+00  1.84747088E+00  9.72014666E-01  1.10244034E-02  0.00000000E+00  9.72077191E-01  2.43113327E+00  1.31592512E+00  5.23734540E-02 -5.22537172E-01  0.00000000E+00
 1  1.05009997E+00  1.51249999E-02  0.00000000E+00  1.84738791E+00  9.71872330E-01  1.11384662E-02  0.00000000E+00  9.71936166E-01  2.43104672E+00  1.31593728E+00  4.99737374E-02 -1.40718341E-01  0.00000000E+00
 1  1.05009997E+00  1.53750004E-02  0.00000000E+00  1.84735274E+00  9.71825778E-01  1.12169599E-02  0.00000000E+00  9.71890509E-01  2.43099165E+00  1.31593263E+00  4.69995402E-02 -1.40718341E-01  0.00000000E+00
 1  1.05009997E+00  1.56250000E-02  0.00000000E+00  1.84731758E+00  9.71779227E-01  1.12954546E-02  0.00000000E+00  9.71844852E-01  2.43093681E+00  1.31592798E+00  4.40253392E-02 -1.40718341E-01  0.00000000E+00
 1  1.05009997E+00  1.58750005E-02  0.00000000E+00  1.84728241E+00  9.71732676E-01  1.13739483E-02  0.00000000E+00  9.71799195E-01  2.43088198E+00  1.31592333E+00  4.10511382E-02 -1.40718341E-01  0.00000000E+00
 1  1.05009997E+00  1.61249992E-02  0.00000000E+00  1.84724724E+00  9.71686125E-01  1.14524430E-02  0.00000000E+00  9.71753597E-01  2.43082714E+00  1.31591868E+00  3.80769372E-02 -1.40718341E-01  0.00000000E+00
 1  1.05009997E+00  1.63749997E-02  0.00000000E+00  1.84721208E+00  9.71639574E-01  1.15309367E-02  0.00000000E+00  9.71707940E-01  2.43077207E+00  1.31591403E+00  3.51027399E-02 -1.40718341E-01  0.00000000E+00
 1  1.05009997E+00  1.66250002E-02  0.00000000E+00  1.84717691E+00  9.71593022E-01  1.16094304E-02  0.00000000E+00  9.71662343E-01  2.43071723E+00  1.31590927E+00  3.21285389E-02 -1.40718341E-01  0.00000000E+00
 1  1.05009997E+00  1.68750007E-02  0.00000000E+00  1.84714162E+00  9.71546471E-01  1.16879251E-02  0.00000000E+00  9.71616745E-01  2.43066239E+00  1.31590462E+00  2.91543379E-02 -1.40718341E-01  0.00000000E+00
 1  1.05009997E+00  1.71249993E-02  0.00000000E+00  1.84710646E+00  9.71499860E-01  1.17664188E-02  0.00000000E+00  9.71571147E-01  2.43060732E+00  1.31589997E+00  2.61801369E-02 -1.40718341E-01  0.00000000E+00
 1  1.05009997E+00  1.73749998E-02  0.00000000E+00  1.84707129E+00  9.71453309E-01  1.18449135E-02  0.00000000E+00  9.71525550E-01  2.43055248E+00  1.31589532E+00  2.32059378E-02 -1.40718341E-01  0.00000000E+00
 1  1.05009997E+00  1.76250003E-02  0.00000000E+00  1.84703612E+00  9.71406758E-01  1.19234072E-02  0.00000000E+00  9.71479952E-01  2.43049765E+00  1.31589067E+00  2.02317368E-02 -1.40718341E-01  0.00000000E+00
 1  1.05009997E+00  1.78750008E-02  0.00000000E+00  1.84700096E+00  9.71360207E-01  1.20019009E-02  0.00000000E+00  9.71434355E-01  2.43044281E+00  1.31588602E+00  1.72575377E-02 -1.40718341E-01  0.00000000E+00
 1  1.05009997E+00  1.81249995E-02  0.00000000E+00  1.84696579E+00  9.71313655E-01  1.20803956E-02  0.00000000E+00  9.71388817E-01  2.43038774E+00  1.31588137E+00  1.42833376E-02 -1.40718341E-01  0.00000000E+00
 1  1.05009997E+00  1.83750000E-02  0.00000000E+00  1.84693062E+00  9.71267104E-01  1.21588893E-02  0.00000000E+00  9.71343219E-01  2.43033290E+00  1.31587672E+00  1.13091376E-02 -1.40718341E-01  0.00000000E+00
 1  1.05009997E+00  1.86250005E-02  0.00000000E+00  1.84689546E+00  9.71220553E-01  1.22373840E-02  0.00000000E+00  9.71297681E-01  2.43027806E+00  1.31587207E+00  8.33493751E-03 -1.40718341E-01  0.00000000E+00
 1  1.05009997E+00  1.88749991E-02  0.00000000E+00  1.84686029E+00  9.71174002E-01  1.23158777E-02  0.00000000E+00  9.71252084E-01  2.43022323E+00  1.31586730E+00  5.36073744E-03 -1.40718341E-01  0.00000000E+00
 1  1.05009997E+00  1.91249996E-02  0.00000000E+00  1.84682500E+00  9.71127450E-01  1.23943714E-02  0.00000000E+00  9.71206546E-01  2.43016815E+00  1.31586266E+00  2.38653715E-03 -1.40718341E-01  0.00000000E+00
 1  1.05009997E+00  1.93750001E-02  0.00000000E+00  1.84678984E+00  9.71080899E-01  1.24728661E-02  0.00000000E+00  9.71161008E-01  2.43011332E+00  1.31585801E+00 -5.87662915E-04 -1.40718341E-01  0.00000000E+00
 1  1.05009997E+00  1.96250007E-02  0.00000000E+00  1.84675467E+00  9.71034348E-01  1.25513598E-02  0.00000000E+00  9.71115470E-01  2.43005848E+00  1.31585336E+00 -3.56186298E-03 -1.40718341E-01  0.00000000E+00
 1  1.05009997E+00  1.98749993E-02  0.00000000E+00  1.84671950E+00  9.70987797E-01  1.26298545E-02  0.00000000E+00  9.71069932E-01  2.43000340E+00  1.31584871E+00 -6.53606327E-03 -1.40718341E-01  0.00000000E+00
 1  1.05009997E+00  2.01249998E-02  0.00000000E+00  1.84673405E+00  9.70949590E-01  1.26552787E-02  0.00000000E+00  9.71032083E-01  2.43003488E+00  1.31585538E+00 -1.04001723E-02  2.57183284E-01  0.00000000E+00
 1  1.05009997E+00  2.03750003E-02  0.00000000E+00  1.84679842E+00  9.70919728E-01  1.26276342E-02  0.00000000E+00  9.71001863E-01  2.43015289E+00  1.31587338E+00 -1.51541913E-02  2.57183284E-01  0.00000000E+00
 1  1.05009997E+00  2.06250008E-02  0.00000000E+00  1.84686267E+00  9.70889866E-01  1.25999898E-02  0.00000000E+00  9.70971644E-01  2.43027067E+00  1.31589139E+00 -1.99082103E-02  2.57183284E-01  0.00000000E+00
 1  1.05009997E+00  2.08749995E-02  0.00000000E+00  1.84692693E+00  9.70860064E-01  1.25723444E-02  0.00000000E+00  9.70941424E-01  2.43038869E+00  1.31590939E+00 -2.46622283E-02  2.57183284E-01  0.00000000E+00
 1  1.05009997E+00  2.11250000E-02  0.00000000E+00  1.84699130E+00  9.70830202E-01  1.25446999E-02  0.00000000E+00  9.70911205E-01  2.43050647E+00  1.31592751E+00 -2.94162463E-02  2.57183284E-01  0.00000000E+00
 1  1.05009997E+00  2.13750005E-02  0.00000000E+00  1.84705555E+00  9.70800340E-01  1.25170555E-02  0.00000000E+00  9.70881045E-01  2.43062449E+00  1.31594551E+00 -3.41702662E-02  2.57183284E-01  0.00000000E+00
 1  1.05009997E+00  2.16249991E-02  0.00000000E+00  1.84711981E+00  9.70770478E-01  1.24894101E-02  0.00000000E+00  9.70850825E-01  2.43074226E+00  1.31596351E+00 -3.89242843E-02  2.57183284E-01  0.00000000E+00
 1  1.05009997E+00  2.18749996E-02  0.00000000E+00  1.84718418E+00  9.70740616E-01  1.24617657E-02  0.00000000E+00  9.70820606E-01  2.43086004E+00  1.31598151E+00 -4.36783023E-02  2.57183284E-01  0.00000000E+00
 1  1.05009997E+00  2.21250001E-02  0.00000000E+00  1.84724844E+00  9.70710754E-01  1.24341212E-02  0.00000000E+00  9.70790446E-01  2.43097806E+00  1.31599951E+00 -4.84323204E-02  2.57183284E-01  0.00000000E+00
 1  1.05009997E+00  2.23750006E-02  0.00000000E+00  1.84731269E+00  9.70680952E-01  1.24064768E-02  0.00000000E+00  9.70760226E-01  2.43109584E+00  1.31601751E+00 -5.31863384E-02  2.57183284E-01  0.00000000E+00
 1  1.05009997E+00  2.26249993E-02  0.00000000E+00  1.84737706E+00  9.70651090E-01  1.23788314E-02  0.00000000E+00  9.70730007E-01  2.43121386E+00  1.31603551E+00 -5.79403602E-02  2.57183284E-01  0.00000000E+00
 1  1.05009997E+00  2.28749998E-02  0.00000000E+00  1.84744132E+00  9.70621228E-01  1.23511869E-02  0.00000000E+00  9.70699787E-01  2.43133163E+00  1.31605351E+00 -6.26943782E-02  2.57183284E-01  0.00000000E+00
 1  1.05009997E+00  2.31250003E-02  0.00000000E+00  1.84750557E+00  9.70591366E-01  1.23235425E-02  0.00000000E+00  9.70669627E-01  2.43144965E+00  1.31607151E+00 -6.74483925E-02  2.57183284E-01  0.00000000E+00
 1  1.05009997E+00  2.33750008E-02  0.00000000E+00  1.84756994E+00  9.70561504E-01  1.22958971E-02  0.00000000E+00  9.70639408E-01  2.43156743E+00  1.31608963E+00 -7.22024143E-02  2.57183284E-01  0.00000000E+00
 1  1.05009997E+00  2.36249994E-02  0.00000000E+00  1.84763420E+00  9.70531702E-01  1.22682527E-02  0.00000000E+00  9.70609188E-01  2.43168545E+00  1.31610763E+00 -7.69564360E-02  2.57183284E-01  0.00000000E+00
 1  1.05009997E+00  2.38750000E-02  0.00000000E+00  1.84769857E+00  9.70501840E-01  1.22406082E-02  0.00000000E+00  9.70579028E-01  2.43180323E+00  1.31612563E+00 -8.17104504E-02  2.57183284E-01  0.00000000E+00
 1  1.05009997E+00  2.41250005E-02  0.00000000E+00  1.84776282E+00  9.70471978E-01  1.22129638E-02  0.00000000E+00  9.70548809E-01  2.43192124E+00  1.31614363E+00 -8.64644721E-02  2.57183284E-01  0.00000000E+00
 1  1.05009997E+00  2.43749991E-02  0.00000000E+00  1.84782708E+00  9.70442116E-01  1.21853184E-02  0.00000000E+00  9.70518649E-01  2.43203926E+00  1.31616163E+00 -9.12184864E-02  2.57183284E-01  0.00000000E+00
 1  1.05009997E+00  2.46249996E-02  0.00000000E+00  1.84789145E+00  9.70412254E-01  1.21576739E-02  0.00000000E+00  9.70488429E-01  2.43215704E+00  1.31617963E+00 -9.59725082E-02  2.57183284E-01  0.00000000E+00
 1  1.05009997E+00  2.48750001E-02  0.00000000E+00  1.84795570E+00  9.70382452E-01  1.21300295E-02  0.00000000E+00  9.70458210E-01  2.43227506E+00  1.31619763E+00 -1.00726523E-01  2.57183284E-01  0.00000000E+00
 1  1.05009997E+00  2.51250006E-02  0.00000000E+00  1.84809685E+00  9.70359623E-01  1.20328721E-02  0.00000000E+00  9.70434248E-01  2.43253565E+00  1.31623816E+00 -1.06553964E-01  8.72037530E-01  0.00000000E+00
 1  1.05009997E+00  2.53749993E-02  0.00000000E+00  1.84831488E+00  9.70343828E-01  1.18662035E-02  0.00000000E+00  9.70416427E-01  2.43293881E+00  1.31630099E+00 -1.13454819E-01  8.72037530E-01  0.00000000E+00
 1  1.05009997E+00  2.56249998E-02  0.00000000E+00  1.84853292E+00  9.70328093E-01  1.16995340E-02  0.00000000E+00  9.70398605E-01  2.43334198E+00  1.31636393E+00 -1.20355673E-01  8.72037530E-01  0.00000000E+00
 1  1.05009997E+00  2.58750003E-02  0.00000000E+00  1.84875083E+00  9.70312357E-01  1.15328645E-02  0.00000000E+00  9.70380843E-01  2.43374538E+00  1.31642687E+00 -1.27256528E-01  8.72037530E-01  0.00000000E+00
 1  1.05009997E+00  2.61250008E-02  0.00000000E+00  1.84896886E+00  9.70296562E-01  1.13661960E-02  0.00000000E+00  9.70363140E-01  2.43414855E+00  1.31648970E+00 -1.34157375E-01  8.72037530E-01  0.00000000E+00
 1  1.05009997E+00  2.63749994E-02  0.00000000E+00  1.84918690E+00  9.70280826E-01  1.11995265E-02  0.00000000E+00  9.70345438E-01  2.43455195E+00  1.31655264E+00 -1.41058236E-01  8.72037530E-01  0.00000000E+00
 1  1.05009997E+00  2.66249999E-02  0.00000000E+00  1.84940493E+00  9.70265031E-01  1.10328570E-02  0.00000000E+00  9.70327795E-01  2.43495536E+00  1.31661558E+00 -1.47959083E-01  8.72037530E-01  0.00000000E+00
 1  1.05009997E+00  2.68750004E-02  0.00000000E+00  1.84962296E+00  9.70249295E-01  1.08661884E-02  0.00000000E+00  9.70310152E-01  2.43535876E+00  1.31667852E+00 -1.54859945E-01  8.72037530E-01  0.00000000E+00
 1  1.05009997E+00  2.71249991E-02  0.00000000E+00  1.84984088E+00  9.70233500E-01  1.06995190E-02  0.00000000E+00  9.70292509E-01  2.43576217E+00  1.31674135E+00 -1.61760792E-01  8.72037530E-01  0.00000000E+00
 1  1.05009997E+00  2.73749996E-02  0.00000000E+00  1.85005891E+00  9.70217764E-01  1.05328495E-02  0.00000000E+00  9.70274925E-01  2.43616557E+00  1.31680429E+00 -1.68661654E-01  8.72037530E-01  0.00000000E+00
 1  1.05009997E+00  2.76250001E-02  0.00000000E+00  1.85027695E+00  9.70202029E-01  1.03661800E-02  0.00000000E+00  9.70257401E-01  2.43656898E+00  1.31686723E+00 -1.75562501E-01  8.72037530E-01  0.00000000E+00
 1  1.05009997E+00  2.78750006E-02  0.00000000E+00  1.85049498E+00  9.70186234E-01  1.01995114E-02  0.00000000E+00  9.70239878E-01  2.43697262E+00  1.31693006E+00 -1.82463363E-01  8.72037530E-01  0.00000000E+00
 1  1.05009997E+00  2.81249993E-02  0.00000000E+00  1.85071301E+00  9.70170498E-01  1.00328419E-02  0.00000000E+00  9.70222354E-01  2.43737602E+00  1.31699300E+00 -1.89364210E-01  8.72037530E-01  0.00000000E+00
 1  1.05009997E+00  2.83749998E-02  0.00000000E+00  1.85093093E+00  9.70154703E-01  9.86617245E-03  0.00000000E+00  9.70204890E-01  2.43777966E+00  1.31705594E+00 -1.96265072E-01  8.72037530E-01  0.00000000E+00
 1  1.05009997E+00  2.86250003E-02  0.00000000E+00  1.85114896E+00  9.70138967E-01  9.69950389E-03  0.00000000E+00  9.70187426E-01  2.43818307E+00  1.31711888E+00 -2.03165919E-01  8.72037530E-01  0.00000000E+00
 1  1.05009997E+00  2.88750008E-02  0.00000000E+00  1.85136700E+00  9.70123172E-01  9.53283440E-03  0.00000000E+00  9.70170021E-01  2.43858671E+00  1.31718171E+00 -2.10066780E-01  8.72037530E-01  0.00000000E+00
 1  1.05009997E+00  2.91249994E-02  0.00000000E+00  1.85158503E+00  9.70107436E-01  9.36616492E-03  0.00000000E+00  9.70152676E-01  2.43899035E+00  1.31724465E+00 -2.16967627E-01  8.72037530E-01  0.00000000E+00
 1  1.05009997E+00  2.93749999E-02  0.00000000E+00  1.85180306E+00  9.70091701E-01  9.19949636E-03  0.00000000E+00  9.70135272E-01  2.43939400E+00  1.31730759E+00 -2.23868489E-01  8.72037530E-01  0.00000000E+00
 1  1.05009997E+00  2.96250004E-02  0.00000000E+00  1.85202098E+00  9.70075905E-01  9.03282687E-03  0.00000000E+00  9.70117986E-01  2.43979788E+00  1.31737041E+00 -2.30769336E-01  8.72037530E-01  0.00000000E+00
 1  1.05009997E+00  2.98749991E-02  0.00000000E+00  1.85223901E+00  9.70060170E-01  8.86615738E-03  0.00000000E+00  9.70100701E-01  2.44020152E+00  1.31743336E+00 -2.37670183E-01  8.72037530E-01  0.00000000E+00
 1  1.05009997E+00  3.01249996E-02  0.00000000E+00  1.85255241E+00  9.70058382E-01  8.62291269E-03  0.00000000E+00  9.70096707E-01  2.44078040E+00  1.31752288E+00 -2.45366886E-01  1.63509226E+00  0.00000000E+00
 1  1.05009997E+00  3.03750001E-02  0.00000000E+00  1.85296118E+00  9.70070660E-01  8.30309093E-03  0.00000000E+00  9.70106184E-01  2.44153428E+00  1.31763923E+00 -2.53859401E-01  1.63509226E+00  0.00000000E+00
 1  1.05009997E+00  3.06250006E-02  0.00000000E+00  1.85336995E+00  9.70082879E-01  7.98326917E-03  0.00000000E+00  9.70115721E-01  2.44228840E+00  1.31775546E+00 -2.62351930E-01  1.63509226E+00  0.00000000E+00
 1  1.05009997E+00  3.08749992E-02  0.00000000E+00  1.85377872E+00  9.70095098E-01  7.66344788E-03  0.00000000E+00  9.70125377E-01  2.44304252E+00  1.31787169E+00 -2.70844489E-01  1.63509226E+00  0.00000000E+00
 1  1.05009997E+00  3.11249997E-02  0.00000000E+00  1.85418749E+00  9.70107377E-01  7.34362658E-03  0.00000000E+00  9.70135152E-01  2.44379663E+00  1.31798792E+00 -2.79337019E-01  1.63509226E+00  0.00000000E+00
 1  1.05009997E+00  3.13749984E-02  0.00000000E+00  1.85459626E+00  9.70119596E-01  7.02380529E-03  0.00000000E+00  9.70144987E-01  2.44455099E+00  1.31810415E+00 -2.87829548E-01  1.63509226E+00  0.00000000E+00
 1  1.05009997E+00  3.16249989E-02  0.00000000E+00  1.85500503E+00  9.70131814E-01  6.70398353E-03  0.00000000E+00  9.70155001E-01  2.44530559E+00  1.31822038E+00 -2.96322078E-01  1.63509226E+00  0.00000000E+00
 1  1.05009997E+00  3.18749994E-02  0.00000000E+00  1.85541379E+00  9.70144093E-01  6.38416223E-03  0.00000000E+00  9.70165074E-01  2.44606018E+00  1.31833661E+00 -3.04814607E-01  1.63509226E+00  0.00000000E+00
 1  1.05009997E+00  3.21249999E-02  0.00000000E+00  1.85582256E+00  9.70156312E-01  6.06434094E-03  0.00000000E+00  9.70175266E-01  2.44681478E+00  1.31845295E+00 -3.13307136E-01  1.63509226E+00  0.00000000E+00
 1  1.05009997E+00  3.23750004E-02  0.00000000E+00  1.85623133E+00  9.70168531E-01  5.74451964E-03  0.00000000E+00  9.70185578E-01  2.44756937E+00  1.31856918E+00 -3.21799666E-01  1.63509226E+00  0.00000000E+00
 1  1.05009997E+00  3.26250009E-02  0.00000000E+00  1.85664010E+00  9.70180809E-01  5.42469788E-03  0.00000000E+00  9.70195949E-01  2.44832420E+00  1.31868541E+00 -3.30292195E-01  1.63509226E+00  0.00000000E+00
 1  1.05009997E+00  3.28750014E-02  0.00000000E+00  1.85704887E+00  9.70193028E-01  5.10487659E-03  0.00000000E+00  9.70206439E-01  2.44907928E+00  1.31880164E+00 -3.38784724E-01  1.63509226E+00  0.00000000E+00
 1  1.05009997E+00  3.31249982E-02  0.00000000E+00  1.85745764E+00  9.70205247E-01  4.78505529E-03  0.00000000E+00  9.70217049E-01  2.44983411E+00  1.31891787E+00 -3.47277254E-01  1.63509226E+00  0.00000000E+00
 1  1.05009997E+00  3.33749987E-02  0.00000000E+00  1.85786653E+00  9.70217526E-01  4.46523353E-03  0.00000000E+00  9.70227778E-01  2.45058918E+00  1.31903410E+00 -3.55769783E-01  1.63509226E+00  0.00000000E+00
 1  1.05009997E+00  3.36249992E-02  0.00000000E+00  1.85827529E+00  9.70229745E-01  4.14541224E-03  0.00000000E+00  9.70238566E-01  2.45134449E+00  1.31915033E+00 -3.64262313E-01  1.63509226E+00  0.00000000E+00
 1  1.05009997E+00  3.38749997E-02  0.00000000E+00  1.85868406E+00  9.70241964E-01  3.82559071E-03  0.00000000E+00  9.70249534E-01  2.45209980E+00  1.31926668E+00 -3.72754842E-01  1.63509226E+00  0.00000000E+00
 1  1.05009997E+00  3.41250002E-02  0.00000000E+00  1.85909283E+00  9.70254242E-01  3.50576942E-03  0.00000000E+00  9.70260561E-01  2.45285511E+00  1.31938291E+00 -3.81247371E-01  1.63509226E+00  0.00000000E+00
 1  1.05009997E+00  3.43750007E-02  0.00000000E+00  1.85950160E+00  9.70266461E-01  3.18594789E-03  0.00000000E+00  9.70271707E-01  2.45361066E+00  1.31949914E+00 -3.89739901E-01  1.63509226E+00  0.00000000E+00
 1  1.05009997E+00  3.46250013E-02  0.00000000E+00  1.85991037E+00  9.70278680E-01  2.86612636E-03  0.00000000E+00  9.70282912E-01  2.45436621E+00  1.31961536E+00 -3.98232430E-01  1.63509226E+00  0.00000000E+00
 1  1.05009997E+00  3.48750018E-02  0.00000000E+00  1.86031914E+00  9.70290959E-01  2.54630507E-03  0.00000000E+00  9.70294297E-01  2.45512199E+00  1.31973159E+00 -4.06724960E-01  1.63509226E+00  0.00000000E+00