# CoordinateSystem = xByUzL
# Units = ISS
VARIABLES = "Found","X","Y","Z","Density","VelocityX","VelocityY","VelocityZ","VelocityMag","Pressure","Temperature","DensityGradientX","DensityGradientY","DensityGradientZ"
ZONE T="t = 7.00000000E-01",I=8000,SOLUTIONTIME=7.00000000E-01
 1  1.25000006E-04  4.00099993E-01  0.00000000E+00  1.00000000E+00  1.77482390E+00  2.80737148E-15  0.00000000E+00  1.77482390E+00  1.00000000E+00  1.00000000E+00 -2.28295161E-12 -5.63521452E-13  0.00000000E+00
 1  3.75000003E-04  4.00099993E-01  0.00000000E+00  1.00000000E+00  1.77482390E+00  3.45507217E-15  0.00000000E+00  1.77482390E+00  1.00000000E+00  1.00000000E+00 -2.28295161E-12 -1.13012377E-12  0.00000000E+00
 1  6.24999986E-04  4.00099993E-01  0.00000000E+00  1.00000000E+00  1.77482390E+00  4.10277306E-15  0.00000000E+00  1.77482390E+00  1.00000000E+00  1.00000000E+00 -2.28295161E-12 -1.69672609E-12  0.00000000E+00
 1  8.75000027E-04  4.00099993E-01  0.00000000E+00  1.00000000E+00  1.77482390E+00  4.75047375E-15  0.00000000E+00  1.77482390E+00  1.00000000E+00  1.00000000E+00 -2.28295161E-12 -2.20648499E-12  0.00000000E+00
 1  1.12499995E-03  4.00099993E-01  0.00000000E+00  1.00000000E+00  1.77482390E+00  5.39817443E-15  0.00000000E+00  1.77482390E+00  1.00000000E+00  1.00000000E+00 -2.28472796E-12 -2.71624390E-12  0.00000000E+00
 1  1.37499999E-03  4.00099993E-01  0.00000000E+00  1.00000000E+00  1.77482390E+00  6.04587511E-15  0.00000000E+00  1.77482390E+00  1.00000000E+00  1.00000000E+00 -2.28295161E-12 -3.28284622E-12  0.00000000E+00
 1  1.62500003E-03  4.00099993E-01  0.00000000E+00  1.00000000E+00  1.77482390E+00  6.69357580E-15  0.00000000E+00  1.77482390E+00  1.00000000E+00  1.00000000E+00 -2.28295161E-12 -3.84944854E-12  0.00000000E+00
 1  1.87499996E-03  4.00099993E-01  0.00000000E+00  1.00000000E+00  1.77482390E+00  7.34127691E-15  0.00000000E+00  1.77482390E+00  1.00000000E+00  1.00000000E+00 -2.28295161E-12 -4.35920744E-12  0.00000000E+00
 1  2.12500012E-03  4.00099993E-01  0.00000000E+00  1.00000000E+00  1.77482390E+00  7.98897759E-15  0.00000000E+00  1.77482390E+00  1.00000000E+00  1.00000000E+00 -2.28295161E-12 -4.86896634E-12  0.00000000E+00
 1  2.37499992E-03  4.00099993E-01  0.00000000E+00  1.00000000E+00  1.77482390E+00  8.63667827E-15  0.00000000E+00  1.77482390E+00  1.00000000E+00  1.00000000E+00 -2.28295161E-12 -5.40714695E-12  0.00000000E+00
 1  2.62499996E-03  4.00099993E-01  0.00000000E+00  1.00000000E+00  1.77482390E+00  9.28437896E-15  0.00000000E+00  1.77482390E+00  1.00000000E+00  1.00000000E+00 -2.28295161E-12 -5.93822214E-12  0.00000000E+00
 1  2.87500001E-03  4.00099993E-01  0.00000000E+00  1.00000000E+00  1.77482390E+00  9.93207964E-15  0.00000000E+00  1.77482390E+00  1.00000000E+00  1.00000000E+00 -2.28295161E-12 -6.52614074E-12  0.00000000E+00
 1  3.12500005E-03  4.00099993E-01  0.00000000E+00  1.00000000E+00  1.77482390E+00  1.05797803E-14  0.00000000E+00  1.77482390E+00  1.00000000E+00  1.00000000E+00 -2.28295161E-12 -7.05366321E-12  0.00000000E+00
 1  3.37500009E-03  4.00099993E-01  0.00000000E+00  1.00000000E+00  1.77482390E+00  1.11685766E-14  0.00000000E+00  1.77482390E+00  1.00000000E+00  1.00000000E+00  9.60342916E-13 -7.34418082E-12  0.00000000E+00
 1  3.62499990E-03  4.00099993E-01  0.00000000E+00  1.00000000E+00  1.77482390E+00  1.14628520E-14  0.00000000E+00  1.77482390E+00  1.00000000E+00  1.00000000E+00  9.53237489E-13 -6.76408929E-12  0.00000000E+00
 1  3.87499994E-03  4.00099993E-01  0.00000000E+00  1.00000000E+00  1.77482390E+00  1.17571282E-14  0.00000000E+00  1.77482390E+00  1.00000000E+00  1.00000000E+00  9.51461132E-13 -6.09873263E-12  0.00000000E+00
 1  4.12499998E-03  4.00099993E-01  0.00000000E+00  1.00000000E+00  1.77482390E+00  1.20514035E-14  0.00000000E+00  1.77482390E+00  1.00000000E+00  1.00000000E+00  9.53237489E-13 -5.54706281E-12  0.00000000E+00
 1  4.37500002E-03  4.00099993E-01  0.00000000E+00  1.00000000E+00  1.77482390E+00  1.23456788E-14  0.00000000E+00  1.77482390E+00  1.00000000E+00  1.00000000E+00  9.53237489E-13 -4.93854957E-12  0.00000000E+00
 1  4.62500006E-03  4.00099993E-01  0.00000000E+00  1.00000000E+00  1.77482390E+00  1.26399550E-14  0.00000000E+00  1.77482390E+00  1.00000000E+00  1.00000000E+00  9.53237489E-13 -4.24477120E-12  0.00000000E+00
 1  4.87500010E-03  4.00099993E-01  0.00000000E+00  1.00000000E+00  1.77482390E+00  1.29342304E-14  0.00000000E+00  1.77482390E+00  1.00000000E+00  1.00000000E+00  9.53237489E-13 -3.63625796E-12  0.00000000E+00
 1  5.12500014E-03  4.00099993E-01  0.00000000E+00  1.00000000E+00  1.77482390E+00  1.32285057E-14  0.00000000E+00  1.77482390E+00  1.00000000E+00  1.00000000E+00  9.53237489E-13 -3.08458814E-12  0.00000000E+00
 1  5.37500018E-03  4.00099993E-01  0.00000000E+00  1.00000000E+00  1.77482390E+00  1.35227819E-14  0.00000000E+00  1.77482390E+00  1.00000000E+00  1.00000000E+00  9.53237489E-13 -2.47607490E-12  0.00000000E+00
 1  5.62500022E-03  4.00099993E-01  0.00000000E+00  1.00000000E+00  1.77482390E+00  1.38170572E-14  0.00000000E+00  1.77482390E+00  1.00000000E+00  1.00000000E+00  9.53237489E-13 -1.81071824E-12  0.00000000E+00
 1  5.87499980E-03  4.00099993E-01  0.00000000E+00  1.00000000E+00  1.77482390E+00  1.41113326E-14  0.00000000E+00  1.77482390E+00  1.00000000E+00  1.00000000E+00  9.53237489E-13 -1.18799415E-12  0.00000000E+00
 1  6.12499984E-03  4.00099993E-01  0.00000000E+00  1.00000000E+00  1.77482390E+00  1.44056079E-14  0.00000000E+00  1.77482390E+00  1.00000000E+00  1.00000000E+00  9.51461132E-13 -5.72375480E-13  0.00000000E+00
 1  6.37499988E-03  4.00099993E-01  0.00000000E+00  1.00000000E+00  1.77482390E+00  1.46998841E-14  0.00000000E+00  1.77482390E+00  1.00000000E+00  1.00000000E+00  9.53237489E-13 -1.71529457E-14  0.00000000E+00
 1  6.62499992E-03  4.00099993E-01  0.00000000E+00  1.00000000E+00  1.77482390E+00  1.49941603E-14  0.00000000E+00  1.77482390E+00  1.00000000E+00  1.00000000E+00  9.10604925E-13  6.63302746E-13  0.00000000E+00
 1  6.87499996E-03  4.00099993E-01  0.00000000E+00  1.00000000E+00  1.77482390E+00  1.43647894E-14  0.00000000E+00  1.77482390E+00  1.00000000E+00  1.00000000E+00 -4.26347846E-12  9.75053371E-13  0.00000000E+00
 1  7.12500000E-03  4.00099993E-01  0.00000000E+00  1.00000000E+00  1.77482390E+00  1.35506908E-14  0.00000000E+00  1.77482390E+00  1.00000000E+00  1.00000000E+00 -4.26347846E-12  1.34042777E-12  0.00000000E+00
 1  7.37500004E-03  4.00099993E-01  0.00000000E+00  1.00000000E+00  1.77482390E+00  1.27365922E-14  0.00000000E+00  1.77482390E+00  1.00000000E+00  1.00000000E+00 -4.24926760E-12  1.59211533E-12  0.00000000E+00
 1  7.62500009E-03  4.00099993E-01  0.00000000E+00  1.00000000E+00  1.77482390E+00  1.19224936E-14  0.00000000E+00  1.77482390E+00  1.00000000E+00  1.00000000E+00 -4.26347846E-12  1.87222460E-12  0.00000000E+00
 1  7.87500013E-03  4.00099993E-01  0.00000000E+00  1.00000000E+00  1.77482390E+00  1.11083950E-14  0.00000000E+00  1.77482390E+00  1.00000000E+00  1.00000000E+00 -4.26347846E-12  2.20917729E-12  0.00000000E+00
 1  8.12499970E-03  4.00099993E-01  0.00000000E+00  1.00000000E+00  1.77482390E+00  1.02942955E-14  0.00000000E+00  1.77482390E+00  1.00000000E+00  1.00000000E+00 -4.26347846E-12  2.51770826E-12  0.00000000E+00
 1  8.37500021E-03  4.00099993E-01  0.00000000E+00  1.00000000E+00  1.77482390E+00  9.48019688E-15  0.00000000E+00  1.77482390E+00  1.00000000E+00  1.00000000E+00 -4.26347846E-12  2.76939582E-12  0.00000000E+00
 1  8.62499978E-03  4.00099993E-01  0.00000000E+00  1.00000000E+00  1.77482390E+00  8.66609827E-15  0.00000000E+00  1.77482390E+00  1.00000000E+00  1.00000000E+00 -4.26347846E-12  3.06371595E-12  0.00000000E+00
 1  8.87500029E-03  4.00099993E-01  0.00000000E+00  1.00000000E+00  1.77482390E+00  7.85199966E-15  0.00000000E+00  1.77482390E+00  1.00000000E+00  1.00000000E+00 -4.26525482E-12  3.37224693E-12  0.00000000E+00
 1  9.12499987E-03  4.00099993E-01  0.00000000E+00  1.00000000E+00  1.77482390E+00  7.03790062E-15  0.00000000E+00  1.77482390E+00  1.00000000E+00  1.00000000E+00 -4.27236024E-12  3.69498876E-12  0.00000000E+00
 1  9.37500037E-03  4.00099993E-01  0.00000000E+00  1.00000000E+00  1.77482390E+00  6.22380158E-15  0.00000000E+00  1.77482390E+00  1.00000000E+00  1.00000000E+00 -4.30611102E-12  3.96088717E-12  0.00000000E+00
 1  9.62499995E-03  4.00099993E-01  0.00000000E+00  1.00000000E+00  1.77482390E+00  5.40970297E-15  0.00000000E+00  1.77482390E+00  1.00000000E+00  1.00000000E+00 -4.24749125E-12  4.25520730E-12  0.00000000E+00
 1  9.87500045E-03  4.00099993E-01  0.00000000E+00  1.00000000E+00  1.77482390E+00  4.59560394E-15  0.00000000E+00  1.77482390E+00  1.00000000E+00  1.00000000E+00 -4.30611102E-12  4.58150184E-12  0.00000000E+00
 1  1.01250000E-02  4.00099993E-01  0.00000000E+00  1.00000000E+00  1.77482390E+00  4.17560138E-15  0.00000000E+00  1.77482390E+00  1.00000000E+00  1.00000000E+00  2.42939002E-12  4.33392211E-12  0.00000000E+00
 1  1.03749996E-02  4.00099993E-01  0.00000000E+00  1.00000000E+00  1.77482390E+00  4.14969488E-15  0.00000000E+00  1.77482390E+00  1.00000000E+00  1.00000000E+00  2.42939002E-12  3.47871731E-12  0.00000000E+00
 1  1.06250001E-02  4.00099993E-01  0.00000000E+00  1.00000000E+00  1.77482390E+00  4.12378880E-15  0.00000000E+00  1.77482390E+00  1.00000000E+00  1.00000000E+00  2.48445708E-12  2.62351252E-12  0.00000000E+00
 1  1.08749997E-02  4.00099993E-01  0.00000000E+00  1.00000000E+00  1.77482390E+00  4.09788229E-15  0.00000000E+00  1.77482390E+00  1.00000000E+00  1.00000000E+00  2.42939002E-12  1.73988601E-12  0.00000000E+00
 1  1.11250002E-02  4.00099993E-01  0.00000000E+00  1.00000000E+00  1.77482390E+00  4.07197579E-15  0.00000000E+00  1.77482390E+00  1.00000000E+00  1.00000000E+00  2.42939002E-12  9.13102927E-13  0.00000000E+00
 1  1.13749998E-02  4.00099993E-01  0.00000000E+00  1.00000000E+00  1.77482390E+00  4.04606929E-15  0.00000000E+00  1.77482390E+00  1.00000000E+00  1.00000000E+00  2.42939002E-12  8.63198402E-14  0.00000000E+00
 1  1.16250003E-02  4.00099993E-01  0.00000000E+00  1.00000000E+00  1.77482390E+00  4.02016279E-15  0.00000000E+00  1.77482390E+00  1.00000000E+00  1.00000000E+00  2.42761367E-12 -7.68884956E-13  0.00000000E+00
 1  1.18749999E-02  4.00099993E-01  0.00000000E+00  1.00000000E+00  1.77482390E+00  3.99425628E-15  0.00000000E+00  1.77482390E+00  1.00000000E+00  1.00000000E+00  2.42939002E-12 -1.56724633E-12  0.00000000E+00
 1  1.21250004E-02  4.00099993E-01  0.00000000E+00  1.00000000E+00  1.77482390E+00  3.96835020E-15  0.00000000E+00  1.77482390E+00  1.00000000E+00  1.00000000E+00  2.42939002E-12 -2.45087284E-12  0.00000000E+00
 1  1.23749999E-02  4.00099993E-01  0.00000000E+00  1.00000000E+00  1.77482390E+00  3.94244370E-15  0.00000000E+00  1.77482390E+00  1.00000000E+00  1.00000000E+00  2.42939002E-12 -3.30607763E-12  0.00000000E+00
 1  1.26250004E-02  4.00099993E-01  0.00000000E+00  1.00000000E+00  1.77482390E+00  3.91653720E-15  0.00000000E+00  1.77482390E+00  1.00000000E+00  1.00000000E+00  2.42939002E-12 -4.10443901E-12  0.00000000E+00
 1  1.28750000E-02  4.00099993E-01  0.00000000E+00  1.00000000E+00  1.77482390E+00  3.89063070E-15  0.00000000E+00  1.77482390E+00  1.00000000E+00  1.00000000E+00  2.42939002E-12 -4.97385466E-12  0.00000000E+00
 1  1.31249996E-02  4.00099993E-01  0.00000000E+00  1.00000000E+00  1.77482390E+00  3.86472419E-15  0.00000000E+00  1.77482390E+00  1.00000000E+00  1.00000000E+00  2.42939002E-12 -5.78997961E-12  0.00000000E+00
 1  1.33750001E-02  4.00099993E-01  0.00000000E+00  1.00000000E+00  1.77482390E+00  3.74681805E-15  0.00000000E+00  1.77482390E+00  1.00000000E+00  1.00000000E+00 -2.75679479E-12 -6.57232602E-12  0.00000000E+00
 1  1.36249997E-02  4.00099993E-01  0.00000000E+00  1.00000000E+00  1.77482390E+00  3.16891331E-15  0.00000000E+00  1.77482390E+00  1.00000000E+00  1.00000000E+00 -2.70528044E-12 -6.27894958E-12  0.00000000E+00
 1  1.38750002E-02  4.00099993E-01  0.00000000E+00  1.00000000E+00  1.77482390E+00  2.59100835E-15  0.00000000E+00  1.77482390E+00  1.00000000E+00  1.00000000E+00 -2.70528044E-12 -6.12768170E-12  0.00000000E+00
 1  1.41249998E-02  4.00099993E-01  0.00000000E+00  1.00000000E+00  1.77482390E+00  2.01310340E-15  0.00000000E+00  1.77482390E+00  1.00000000E+00  1.00000000E+00 -2.71416223E-12 -5.94799210E-12  0.00000000E+00
 1  1.43750003E-02  4.00099993E-01  0.00000000E+00  1.00000000E+00  1.77482390E+00  1.43519854E-15  0.00000000E+00  1.77482390E+00  1.00000000E+00  1.00000000E+00 -2.71416223E-12 -5.76830250E-12  0.00000000E+00
 1  1.46249998E-02  4.00099993E-01  0.00000000E+00  1.00000000E+00  1.77482390E+00  8.57293693E-16  0.00000000E+00  1.77482390E+00  1.00000000E+00  1.00000000E+00 -2.70528044E-12 -5.64545632E-12  0.00000000E+00
 1  1.48750003E-02  4.00099993E-01  0.00000000E+00  1.00000000E+00  1.77482390E+00  2.79388788E-16  0.00000000E+00  1.77482390E+00  1.00000000E+00  1.00000000E+00 -2.71416223E-12 -5.46576673E-12  0.00000000E+00
 1  1.51249999E-02  4.00099993E-01  0.00000000E+00  1.00000000E+00  1.77482390E+00 -2.98516089E-16  0.00000000E+00  1.77482390E+00  1.00000000E+00  1.00000000E+00 -2.71416223E-12 -5.22923371E-12  0.00000000E+00
 1  1.53750004E-02  4.00099993E-01  0.00000000E+00  1.00000000E+00  1.77482390E+00 -8.76420967E-16  0.00000000E+00  1.77482390E+00  1.00000000E+00  1.00000000E+00 -2.69995137E-12 -5.04954412E-12  0.00000000E+00
 1  1.56250000E-02  4.00099993E-01  0.00000000E+00  1.00000000E+00  1.77482390E+00 -1.45432592E-15  0.00000000E+00  1.77482390E+00  1.00000000E+00  1.00000000E+00 -2.71416223E-12 -4.92669794E-12  0.00000000E+00
 1  1.58750005E-02  4.00099993E-01  0.00000000E+00  1.00000000E+00  1.77482390E+00 -2.03223067E-15  0.00000000E+00  1.77482390E+00  1.00000000E+00  1.00000000E+00 -2.71416223E-12 -4.70437578E-12  0.00000000E+00
 1  1.61249992E-02  4.00099993E-01  0.00000000E+00  1.00000000E+00  1.77482390E+00 -2.61013563E-15  0.00000000E+00  1.77482390E+00  1.00000000E+00  1.00000000E+00 -2.69995137E-12 -4.57442417E-12  0.00000000E+00
 1  1.63749997E-02  4.00099993E-01  0.00000000E+00  1.00000000E+00  1.77482390E+00 -3.18804058E-15  0.00000000E+00  1.77482390E+00  1.00000000E+00  1.00000000E+00 -2.69995137E-12 -4.36631287E-12  0.00000000E+00
 1  1.66250002E-02  4.00099993E-01  0.00000000E+00  1.00000000E+00  1.77482390E+00 -3.76594533E-15  0.00000000E+00  1.77482390E+00  1.00000000E+00  1.00000000E+00 -2.70705680E-12 -4.16930379E-12  0.00000000E+00
 1  1.68750007E-02  4.00099993E-01  0.00000000E+00  1.00000000E+00  1.77482390E+00 -4.43110802E-15  0.00000000E+00  1.77482390E+00  1.00000000E+00  1.00000000E+00 -7.21644966E-14 -4.12997414E-12  0.00000000E+00
 1  1.71249993E-02  4.00099993E-01  0.00000000E+00  1.00000000E+00  1.77482390E+00 -5.11372213E-15  0.00000000E+00  1.77482390E+00  1.00000000E+00  1.00000000E+00 -7.21644966E-14 -4.03149736E-12  0.00000000E+00
 1  1.73749998E-02  4.00099993E-01  0.00000000E+00  1.00000000E+00  1.77482390E+00 -5.79633582E-15  0.00000000E+00  1.77482390E+00  1.00000000E+00  1.00000000E+00 -7.21644966E-14 -3.98986399E-12  0.00000000E+00
 1  1.76250003E-02  4.00099993E-01  0.00000000E+00  1.00000000E+00  1.77482390E+00 -6.47894993E-15  0.00000000E+00  1.77482390E+00  1.00000000E+00  1.00000000E+00 -7.21644966E-14 -3.89138721E-12  0.00000000E+00
 1  1.78750008E-02  4.00099993E-01  0.00000000E+00  1.00000000E+00  1.77482390E+00 -7.16156362E-15  0.00000000E+00  1.77482390E+00  1.00000000E+00  1.00000000E+00 -7.21644966E-14 -3.87817556E-12  0.00000000E+00
 1  1.81249995E-02  4.00099993E-01  0.00000000E+00  1.00000000E+00  1.77482390E+00 -7.84417815E-15  0.00000000E+00  1.77482390E+00  1.00000000E+00  1.00000000E+00 -7.21644966E-14 -3.80812049E-12  0.00000000E+00
 1  1.83750000E-02  4.00099993E-01  0.00000000E+00  1.00000000E+00  1.77482390E+00 -8.52679184E-15  0.00000000E+00  1.77482390E+00  1.00000000E+00  1.00000000E+00 -7.39408534E-14 -3.73806541E-12  0.00000000E+00
 1  1.86250005E-02  4.00099993E-01  0.00000000E+00  1.00000000E+00  1.77482390E+00 -9.20940553E-15  0.00000000E+00  1.77482390E+00  1.00000000E+00  1.00000000E+00 -7.21644966E-14 -3.68222119E-12  0.00000000E+00
 1  1.88749991E-02  4.00099993E-01  0.00000000E+00  1.00000000E+00  1.77482390E+00 -9.89202006E-15  0.00000000E+00  1.77482390E+00  1.00000000E+00  1.00000000E+00 -7.21644966E-14 -3.62637698E-12  0.00000000E+00
 1  1.91249996E-02  4.00099993E-01  0.00000000E+00  1.00000000E+00  1.77482390E+00 -1.05746338E-14  0.00000000E+00  1.77482390E+00  1.00000000E+00  1.00000000E+00 -7.03881398E-14 -3.55632190E-12  0.00000000E+00
 1  1.93750001E-02  4.00099993E-01  0.00000000E+00  1.00000000E+00  1.77482390E+00 -1.12572483E-14  0.00000000E+00  1.77482390E+00  1.00000000E+00  1.00000000E+00 -1.53210777E-14 -3.46495055E-12  0.00000000E+00
 1  1.96250007E-02  4.00099993E-01  0.00000000E+00  1.00000000E+00  1.77482390E+00 -1.19398620E-14  0.00000000E+00  1.77482390E+00  1.00000000E+00  1.00000000E+00 -7.03881398E-14 -3.40910633E-12  0.00000000E+00
 1  1.98749993E-02  4.00099993E-01  0.00000000E+00  1.00000000E+00  1.77482390E+00 -1.26224757E-14  0.00000000E+00  1.77482390E+00  1.00000000E+00  1.00000000E+00 -7.03881398E-14 -3.38701289E-12  0.00000000E+00
 1  2.01249998E-02  4.00099993E-01  0.00000000E+00  1.00000000E+00  1.77482390E+00 -1.28751253E-14  0.00000000E+00  1.77482390E+00  1.00000000E+00  1.00000000E+00 -6.14186479E-12 -3.06546455E-12  0.00000000E+00
 1  2.03750003E-02  4.00099993E-01  0.00000000E+00  1.00000000E+00  1.77482390E+00 -1.26978108E-14  0.00000000E+00  1.77482390E+00  1.00000000E+00  1.00000000E+00 -6.14186479E-12 -2.68338129E-12  0.00000000E+00
 1  2.06250008E-02  4.00099993E-01  0.00000000E+00  1.00000000E+00  1.77482390E+00 -1.25204963E-14  0.00000000E+00  1.77482390E+00  1.00000000E+00  1.00000000E+00 -6.08679773E-12 -2.27287633E-12  0.00000000E+00
 1  2.08749995E-02  4.00099993E-01  0.00000000E+00  1.00000000E+00  1.77482390E+00 -1.23431809E-14  0.00000000E+00  1.77482390E+00  1.00000000E+00  1.00000000E+00 -6.14186479E-12 -1.89079308E-12  0.00000000E+00
 1  2.11250000E-02  4.00099993E-01  0.00000000E+00  1.00000000E+00  1.77482390E+00 -1.21658665E-14  0.00000000E+00  1.77482390E+00  1.00000000E+00  1.00000000E+00 -6.14186479E-12 -1.45186640E-12  0.00000000E+00
 1  2.13750005E-02  4.00099993E-01  0.00000000E+00  1.00000000E+00  1.77482390E+00 -1.19885520E-14  0.00000000E+00  1.77482390E+00  1.00000000E+00  1.00000000E+00 -6.14186479E-12 -1.09820486E-12  0.00000000E+00
 1  2.16249991E-02  4.00099993E-01  0.00000000E+00  1.00000000E+00  1.77482390E+00 -1.18112375E-14  0.00000000E+00  1.77482390E+00  1.00000000E+00  1.00000000E+00 -6.14364115E-12 -6.30856478E-13  0.00000000E+00
 1  2.18749996E-02  4.00099993E-01  0.00000000E+00  1.00000000E+00  1.77482390E+00 -1.16339221E-14  0.00000000E+00  1.77482390E+00  1.00000000E+00  1.00000000E+00 -6.14186479E-12 -2.20351515E-13  0.00000000E+00
 1  2.21250001E-02  4.00099993E-01  0.00000000E+00  1.00000000E+00  1.77482390E+00 -1.14566077E-14  0.00000000E+00  1.77482390E+00  1.00000000E+00  1.00000000E+00 -6.14186479E-12  2.32786013E-13  0.00000000E+00
 1  2.23750006E-02  4.00099993E-01  0.00000000E+00  1.00000000E+00  1.77482390E+00 -1.12792932E-14  0.00000000E+00  1.77482390E+00  1.00000000E+00  1.00000000E+00 -6.14186479E-12  6.14869267E-13  0.00000000E+00
 1  2.26249993E-02  4.00099993E-01  0.00000000E+00  1.00000000E+00  1.77482390E+00 -1.11019778E-14  0.00000000E+00  1.77482390E+00  1.00000000E+00  1.00000000E+00 -6.14186479E-12  1.01826880E-12  0.00000000E+00
 1  2.28749998E-02  4.00099993E-01  0.00000000E+00  1.00000000E+00  1.77482390E+00 -1.09246633E-14  0.00000000E+00  1.77482390E+00  1.00000000E+00  1.00000000E+00 -6.14186479E-12  1.47851176E-12  0.00000000E+00
 1  2.31250003E-02  4.00099993E-01  0.00000000E+00  1.00000000E+00  1.77482390E+00 -1.07473489E-14  0.00000000E+00  1.77482390E+00  1.00000000E+00  1.00000000E+00 -6.14186479E-12  1.92454386E-12  0.00000000E+00
 1  2.33750008E-02  4.00099993E-01  0.00000000E+00  1.00000000E+00  1.77482390E+00 -1.04203052E-14  0.00000000E+00  1.77482390E+00  1.00000000E+00  1.00000000E+00  6.49036380E-13  2.15188978E-12  0.00000000E+00
 1  2.36249994E-02  4.00099993E-01  0.00000000E+00  1.00000000E+00  1.77482390E+00 -9.34461655E-15  0.00000000E+00  1.77482390E+00  1.00000000E+00  1.00000000E+00  6.49036380E-13  1.51140211E-12  0.00000000E+00
 1  2.38750000E-02  4.00099993E-01  0.00000000E+00  1.00000000E+00  1.77482390E+00 -8.26892875E-15  0.00000000E+00  1.77482390E+00  1.00000000E+00  1.00000000E+00  6.47260023E-13  8.99336161E-13  0.00000000E+00
 1  2.41250005E-02  4.00099993E-01  0.00000000E+00  1.00000000E+00  1.77482390E+00 -7.19324011E-15  0.00000000E+00  1.77482390E+00  1.00000000E+00  1.00000000E+00  6.49036380E-13  3.72535336E-13  0.00000000E+00
 1  2.43749991E-02  4.00099993E-01  0.00000000E+00  1.00000000E+00  1.77482390E+00 -6.11755231E-15  0.00000000E+00  1.77482390E+00  1.00000000E+00  1.00000000E+00  6.49036380E-13 -2.39530618E-13  0.00000000E+00
 1  2.46249996E-02  4.00099993E-01  0.00000000E+00  1.00000000E+00  1.77482390E+00 -5.04186409E-15  0.00000000E+00  1.77482390E+00  1.00000000E+00  1.00000000E+00  6.49036380E-13 -8.51596571E-13  0.00000000E+00
 1  2.48750001E-02  4.00099993E-01  0.00000000E+00  1.00000000E+00  1.77482390E+00 -3.96617587E-15  0.00000000E+00  1.77482390E+00  1.00000000E+00  1.00000000E+00  6.49036380E-13 -1.40681911E-12  0.00000000E+00
 1  2.51250006E-02  4.00099993E-01  0.00000000E+00  1.00000000E+00  1.77482390E+00 -2.89048765E-15  0.00000000E+00  1.77482390E+00  1.00000000E+00  1.00000000E+00  6.49036380E-13 -1.99046335E-12  0.00000000E+00
 1  2.53749993E-02  4.00099993E-01  0.00000000E+00  1.00000000E+00  1.77482390E+00 -1.81479943E-15  0.00000000E+00  1.77482390E+00  1.00000000E+00  1.00000000E+00  6.49036380E-13 -2.57410759E-12  0.00000000E+00
 1  2.56249998E-02  4.00099993E-01  0.00000000E+00  1.00000000E+00  1.77482390E+00 -7.39111262E-16  0.00000000E+00  1.77482390E+00  1.00000000E+00  1.00000000E+00  6.49036380E-13 -3.24301697E-12  0.00000000E+00
 1  2.58750003E-02  4.00099993E-01  0.00000000E+00  1.00000000E+00  1.77482390E+00  3.36576906E-16  0.00000000E+00  1.77482390E+00  1.00000000E+00  1.00000000E+00  6.49036380E-13 -3.75560694E-12  0.00000000E+00
 1  2.61250008E-02  4.00099993E-01  0.00000000E+00  1.00000000E+00  1.77482390E+00  1.41226513E-15  0.00000000E+00  1.77482390E+00  1.00000000E+00  1.00000000E+00  6.47260023E-13 -4.38898917E-12  0.00000000E+00
 1  2.63749994E-02  4.00099993E-01  0.00000000E+00  1.00000000E+00  1.77482390E+00  2.48795324E-15  0.00000000E+00  1.77482390E+00  1.00000000E+00  1.00000000E+00  6.49036380E-13 -4.97618613E-12  0.00000000E+00
 1  2.66249999E-02  4.00099993E-01  0.00000000E+00  1.00000000E+00  1.77482390E+00  3.56364125E-15  0.00000000E+00  1.77482390E+00  1.00000000E+00  1.00000000E+00  6.49036380E-13 -5.57004443E-12  0.00000000E+00
 1  2.68750004E-02  4.00099993E-01  0.00000000E+00  1.00000000E+00  1.77482390E+00  2.81610058E-15  0.00000000E+00  1.77482390E+00  1.00000000E+00  1.00000000E+00  8.94762042E-12 -6.17098039E-12  0.00000000E+00
 1  2.71249991E-02  4.00099993E-01  0.00000000E+00  1.00000000E+00  1.77482390E+00  1.70391403E-15  0.00000000E+00  1.77482390E+00  1.00000000E+00  1.00000000E+00  8.94762042E-12 -6.79598045E-12  0.00000000E+00
 1  2.73749996E-02  4.00099993E-01  0.00000000E+00  1.00000000E+00  1.77482390E+00  5.91727476E-16  0.00000000E+00  1.77482390E+00  1.00000000E+00  1.00000000E+00  8.94762042E-12 -7.47782392E-12  0.00000000E+00
 1  2.76250001E-02  4.00099993E-01  0.00000000E+00  1.00000000E+00  1.77482390E+00 -5.20459077E-16  0.00000000E+00  1.77482390E+00  1.00000000E+00  1.00000000E+00  8.94762042E-12 -8.10282397E-12  0.00000000E+00
 1  2.78750006E-02  4.00099993E-01  0.00000000E+00  1.00000000E+00  1.77482390E+00 -1.63264574E-15  0.00000000E+00  1.77482390E+00  1.00000000E+00  1.00000000E+00  8.94762042E-12 -8.72782402E-12  0.00000000E+00
 1  2.81249993E-02  4.00099993E-01  0.00000000E+00  1.00000000E+00  1.77482390E+00 -2.74483229E-15  0.00000000E+00  1.77482390E+00  1.00000000E+00  1.00000000E+00  8.94762042E-12 -9.35282407E-12  0.00000000E+00
 1  2.83749998E-02  4.00099993E-01  0.00000000E+00  1.00000000E+00  1.77482390E+00 -3.85701874E-15  0.00000000E+00  1.77482390E+00  1.00000000E+00  1.00000000E+00  8.94584407E-12 -9.97782412E-12  0.00000000E+00
 1  2.86250003E-02  4.00099993E-01  0.00000000E+00  1.00000000E+00  1.77482390E+00 -4.96920561E-15  0.00000000E+00  1.77482390E+00  1.00000000E+00  1.00000000E+00  8.94762042E-12 -1.06028242E-11  0.00000000E+00
 1  2.88750008E-02  4.00099993E-01  0.00000000E+00  1.00000000E+00  1.77482390E+00 -6.08139205E-15  0.00000000E+00  1.77482390E+00  1.00000000E+00  1.00000000E+00  8.94762042E-12 -1.12420351E-11  0.00000000E+00
 1  2.91249994E-02  4.00099993E-01  0.00000000E+00  1.00000000E+00  1.77482390E+00 -7.19357892E-15  0.00000000E+00  1.77482390E+00  1.00000000E+00  1.00000000E+00  8.94762042E-12 -1.19096677E-11  0.00000000E+00
 1  2.93749999E-02  4.00099993E-01  0.00000000E+00  1.00000000E+00  1.77482390E+00 -8.30576537E-15  0.00000000E+00  1.77482390E+00  1.00000000E+00  1.00000000E+00  9.00268748E-12 -1.24565080E-11  0.00000000E+00
 1  2.96250004E-02  4.00099993E-01  0.00000000E+00  1.00000000E+00  1.77482390E+00 -9.41795182E-15  0.00000000E+00  1.77482390E+00  1.00000000E+00  1.00000000E+00  8.94762042E-12 -1.31809841E-11  0.00000000E+00
 1  2.98749991E-02  4.00099993E-01  0.00000000E+00  1.00000000E+00  1.77482390E+00 -1.05301383E-14  0.00000000E+00  1.77482390E+00  1.00000000E+00  1.00000000E+00  8.94762042E-12 -1.38024314E-11  0.00000000E+00
 1  3.01249996E-02  4.00099993E-01  0.00000000E+00  1.00000000E+00  1.77482390E+00 -1.10902388E-14  0.00000000E+00  1.77482390E+00  1.00000000E+00  1.00000000E+00 -7.01105840E-12 -1.39223633E-11  0.00000000E+00
 1  3.03750001E-02  4.00099993E-01  0.00000000E+00  1.00000000E+00  1.77482390E+00 -1.10982526E-14  0.00000000E+00  1.77482390E+00  1.00000000E+00  1.00000000E+00 -7.01105840E-12 -1.35247924E-11  0.00000000E+00
 1  3.06250006E-02  4.00099993E-01  0.00000000E+00  1.00000000E+00  1.77482390E+00 -1.11062672E-14  0.00000000E+00  1.77482390E+00  1.00000000E+00  1.00000000E+00 -6.95599134E-12 -1.31272215E-11  0.00000000E+00
 1  3.08749992E-02  4.00099993E-01  0.00000000E+00  1.00000000E+00  1.77482390E+00 -1.11142810E-14  0.00000000E+00  1.77482390E+00  1.00000000E+00  1.00000000E+00 -7.00217662E-12 -1.27864941E-11  0.00000000E+00
 1  3.11249997E-02  4.00099993E-01  0.00000000E+00  1.00000000E+00  1.77482390E+00 -1.11222956E-14  0.00000000E+00  1.77482390E+00  1.00000000E+00  1.00000000E+00 -6.99684755E-12 -1.24173449E-11  0.00000000E+00
 1  3.13749984E-02  4.00099993E-01  0.00000000E+00  1.00000000E+00  1.77482390E+00 -1.11303094E-14  0.00000000E+00  1.77482390E+00  1.00000000E+00  1.00000000E+00 -7.01105840E-12 -1.20197741E-11  0.00000000E+00
 1  3.16249989E-02  4.00099993E-01  0.00000000E+00  1.00000000E+00  1.77482390E+00 -1.11383232E-14  0.00000000E+00  1.77482390E+00  1.00000000E+00  1.00000000E+00 -7.01283476E-12 -1.15937815E-11  0.00000000E+00
 1  3.18749994E-02  4.00099993E-01  0.00000000E+00  1.00000000E+00  1.77482390E+00 -1.11463378E-14  0.00000000E+00  1.77482390E+00  1.00000000E+00  1.00000000E+00 -7.00217662E-12 -1.12530540E-11  0.00000000E+00
 1  3.21249999E-02  4.00099993E-01  0.00000000E+00  1.00000000E+00  1.77482390E+00 -1.11543516E-14  0.00000000E+00  1.77482390E+00  1.00000000E+00  1.00000000E+00 -7.01105840E-12 -1.08412723E-11  0.00000000E+00
 1  3.23750004E-02  4.00099993E-01  0.00000000E+00  1.00000000E+00  1.77482390E+00 -1.11623662E-14  0.00000000E+00  1.77482390E+00  1.00000000E+00  1.00000000E+00 -7.00217662E-12 -1.05147557E-11  0.00000000E+00
 1  3.26250009E-02  4.00099993E-01  0.00000000E+00  1.00000000E+00  1.77482390E+00 -1.11703800E-14  0.00000000E+00  1.77482390E+00  1.00000000E+00  1.00000000E+00 -7.01105840E-12 -1.01527120E-11  0.00000000E+00
 1  3.28750014E-02  4.00099993E-01  0.00000000E+00  1.00000000E+00  1.77482390E+00 -1.11783946E-14  0.00000000E+00  1.77482390E+00  1.00000000E+00  1.00000000E+00 -7.01105840E-12 -9.74803571E-12  0.00000000E+00
 1  3.31249982E-02  4.00099993E-01  0.00000000E+00  1.00000000E+00  1.77482390E+00 -1.11864084E-14  0.00000000E+00  1.77482390E+00  1.00000000E+00  1.00000000E+00 -7.00928204E-12 -9.38243927E-12  0.00000000E+00
 1  3.33749987E-02  4.00099993E-01  0.00000000E+00  1.00000000E+00  1.77482390E+00 -1.12007842E-14  0.00000000E+00  1.77482390E+00  1.00000000E+00  1.00000000E+00 -2.95385938E-12 -9.03549457E-12  0.00000000E+00
 1  3.36249992E-02  4.00099993E-01  0.00000000E+00  1.00000000E+00  1.77482390E+00 -1.12469695E-14  0.00000000E+00  1.77482390E+00  1.00000000E+00  1.00000000E+00 -2.96096481E-12 -8.93279894E-12  0.00000000E+00
 1  3.38749997E-02  4.00099993E-01  0.00000000E+00  1.00000000E+00  1.77482390E+00 -1.12931549E-14  0.00000000E+00  1.77482390E+00  1.00000000E+00  1.00000000E+00 -2.95208302E-12 -8.83010332E-12  0.00000000E+00
 1  3.41250002E-02  4.00099993E-01  0.00000000E+00  1.00000000E+00  1.77482390E+00 -1.13393393E-14  0.00000000E+00  1.77482390E+00  1.00000000E+00  1.00000000E+00 -2.95208302E-12 -8.67056427E-12  0.00000000E+00
 1  3.43750007E-02  4.00099993E-01  0.00000000E+00  1.00000000E+00  1.77482390E+00 -1.13855247E-14  0.00000000E+00  1.77482390E+00  1.00000000E+00  1.00000000E+00 -2.96096481E-12 -8.53944693E-12  0.00000000E+00
 1  3.46250013E-02  4.00099993E-01  0.00000000E+00  1.00000000E+00  1.77482390E+00 -1.14317100E-14  0.00000000E+00  1.77482390E+00  1.00000000E+00  1.00000000E+00 -2.95208302E-12 -8.43675130E-12  0.00000000E+00
 1  3.48750018E-02  4.00099993E-01  0.00000000E+00  1.00000000E+00  1.77482390E+00 -1.14778944E-14  0.00000000E+00  1.77482390E+00  1.00000000E+00  1.00000000E+00 -2.96096481E-12 -8.33405567E-12  0.00000000E+00