# CoordinateSystem = xByUzL
# Units = ISS
VARIABLES = "Found","X","Y","Z","Density","VelocityX","VelocityY","VelocityZ","VelocityMag","Pressure","Temperature","DensityGradientX","DensityGradientY","DensityGradientZ"
ZONE T="t = 7.00000000E-01",I=4000,SOLUTIONTIME=7.00000000E-01
 1  5.20099998E-01  1.25000006E-04  0.00000000E+00  1.94180036E+00  8.67997169E-01 -1.46190127E-04  0.00000000E+00  8.67997169E-01  2.63923955E+00  1.35917139E+00 -4.37684625E-01  3.81180692E+00  0.00000000E+00
 1  5.20099998E-01  3.75000003E-04  0.00000000E+00  1.94275331E+00  8.70404065E-01 -2.77829444E-04  0.00000000E+00  8.70404065E-01  2.63917994E+00  1.35847402E+00 -4.07448739E-01  3.81180692E+00  0.00000000E+00
 1  5.20099998E-01  6.24999986E-04  0.00000000E+00  1.94370627E+00  8.72810900E-01 -4.09468776E-04  0.00000000E+00  8.72811019E-01  2.63911891E+00  1.35777652E+00 -3.77212882E-01  3.81180692E+00  0.00000000E+00
 1  5.20099998E-01  8.75000027E-04  0.00000000E+00  1.94465923E+00  8.75217736E-01 -5.41108078E-04  0.00000000E+00  8.75217915E-01  2.63905668E+00  1.35707915E+00 -3.46977025E-01  3.81180692E+00  0.00000000E+00
 1  5.20099998E-01  1.12499995E-03  0.00000000E+00  1.94561219E+00  8.77624631E-01 -6.72747381E-04  0.00000000E+00  8.77624869E-01  2.63899302E+00  1.35638177E+00 -3.16741168E-01  3.81180692E+00  0.00000000E+00
 1  5.20099998E-01  1.37499999E-03  0.00000000E+00  1.94656515E+00  8.80031466E-01 -8.04386742E-04  0.00000000E+00  8.80031824E-01  2.63892794E+00  1.35568440E+00 -2.86505312E-01  3.81180692E+00  0.00000000E+00
 1  5.20099998E-01  1.62500003E-03  0.00000000E+00  1.94751811E+00  8.82438362E-01 -9.36026045E-04  0.00000000E+00  8.82438838E-01  2.63886166E+00  1.35498703E+00 -2.56269425E-01  3.81180692E+00  0.00000000E+00
 1  5.20099998E-01  1.87499996E-03  0.00000000E+00  1.94847107E+00  8.84845197E-01 -1.06766541E-03  0.00000000E+00  8.84845853E-01  2.63879395E+00  1.35428953E+00 -2.26033568E-01  3.81180692E+00  0.00000000E+00
 1  5.20099998E-01  2.12500012E-03  0.00000000E+00  1.94901609E+00  8.86294901E-01 -1.20310497E-03  0.00000000E+00  8.86295676E-01  2.63876820E+00  1.35389757E+00 -2.05714613E-01  5.48812568E-01  0.00000000E+00
 1  5.20099998E-01  2.37499992E-03  0.00000000E+00  1.94915330E+00  8.86787355E-01 -1.34234480E-03  0.00000000E+00  8.86788368E-01  2.63878536E+00  1.35381103E+00 -1.95312575E-01  5.48812568E-01  0.00000000E+00
 1  5.20099998E-01  2.62499996E-03  0.00000000E+00  1.94929051E+00  8.87279868E-01 -1.48158462E-03  0.00000000E+00  8.87281120E-01  2.63880253E+00  1.35372448E+00 -1.84910521E-01  5.48812568E-01  0.00000000E+00
 1  5.20099998E-01  2.87500001E-03  0.00000000E+00  1.94942772E+00  8.87772381E-01 -1.62082445E-03  0.00000000E+00  8.87773871E-01  2.63881946E+00  1.35363805E+00 -1.74508482E-01  5.48812568E-01  0.00000000E+00
 1  5.20099998E-01  3.12500005E-03  0.00000000E+00  1.94956493E+00  8.88264894E-01 -1.76006428E-03  0.00000000E+00  8.88266623E-01  2.63883638E+00  1.35355151E+00 -1.64106429E-01  5.48812568E-01  0.00000000E+00
 1  5.20099998E-01  3.37500009E-03  0.00000000E+00  1.94970214E+00  8.88757408E-01 -1.89930410E-03  0.00000000E+00  8.88759434E-01  2.63885355E+00  1.35346496E+00 -1.53704390E-01  5.48812568E-01  0.00000000E+00
 1  5.20099998E-01  3.62499990E-03  0.00000000E+00  1.94983935E+00  8.89249921E-01 -2.03854381E-03  0.00000000E+00  8.89252245E-01  2.63887048E+00  1.35337842E+00 -1.43302351E-01  5.48812568E-01  0.00000000E+00
 1  5.20099998E-01  3.87499994E-03  0.00000000E+00  1.94997656E+00  8.89742374E-01 -2.17778375E-03  0.00000000E+00  8.89745057E-01  2.63888741E+00  1.35329187E+00 -1.32900298E-01  5.48812568E-01  0.00000000E+00
 1  5.20099998E-01  4.12499998E-03  0.00000000E+00  1.94997549E+00  8.89704823E-01 -2.34431634E-03  0.00000000E+00  8.89707923E-01  2.63891315E+00  1.35330582E+00 -1.12697646E-01 -5.57629764E-01  0.00000000E+00
 1  5.20099998E-01  4.37500002E-03  0.00000000E+00  1.94983602E+00  8.89137208E-01 -2.53814179E-03  0.00000000E+00  8.89140844E-01  2.63894773E+00  1.35342038E+00 -8.26943964E-02 -5.57629764E-01  0.00000000E+00
 1  5.20099998E-01  4.62500006E-03  0.00000000E+00  1.94969666E+00  8.88569593E-01 -2.73196725E-03  0.00000000E+00  8.88573766E-01  2.63898230E+00  1.35353482E+00 -5.26911356E-02 -5.57629764E-01  0.00000000E+00
 1  5.20099998E-01  4.87500010E-03  0.00000000E+00  1.94955719E+00  8.88001978E-01 -2.92579271E-03  0.00000000E+00  8.88006806E-01  2.63901687E+00  1.35364938E+00 -2.26878822E-02 -5.57629764E-01  0.00000000E+00
 1  5.20099998E-01  5.12500014E-03  0.00000000E+00  1.94941783E+00  8.87434363E-01 -3.11961817E-03  0.00000000E+00  8.87439847E-01  2.63905144E+00  1.35376394E+00  7.31537445E-03 -5.57629764E-01  0.00000000E+00
 1  5.20099998E-01  5.37500018E-03  0.00000000E+00  1.94927835E+00  8.86866748E-01 -3.31344362E-03  0.00000000E+00  8.86872888E-01  2.63908601E+00  1.35387838E+00  3.73186320E-02 -5.57629764E-01  0.00000000E+00
 1  5.20099998E-01  5.62500022E-03  0.00000000E+00  1.94913900E+00  8.86299074E-01 -3.50726908E-03  0.00000000E+00  8.86306047E-01  2.63912034E+00  1.35399294E+00  6.73218891E-02 -5.57629764E-01  0.00000000E+00
 1  5.20099998E-01  5.87499980E-03  0.00000000E+00  1.94899964E+00  8.85731459E-01 -3.70109454E-03  0.00000000E+00  8.85739207E-01  2.63915491E+00  1.35410738E+00  9.73251387E-02 -5.57629764E-01  0.00000000E+00
 1  5.20099998E-01  6.12499984E-03  0.00000000E+00  1.94900823E+00  8.85555267E-01 -3.94350942E-03  0.00000000E+00  8.85564029E-01  2.63919711E+00  1.35412312E+00  1.29752442E-01  6.26440227E-01  0.00000000E+00
 1  5.20099998E-01  6.37499988E-03  0.00000000E+00  1.94916475E+00  8.85770500E-01 -4.23451420E-03  0.00000000E+00  8.85780632E-01  2.63924694E+00  1.35403991E+00  1.64603800E-01  6.26440227E-01  0.00000000E+00
 1  5.20099998E-01  6.62499992E-03  0.00000000E+00  1.94932139E+00  8.85985732E-01 -4.52551898E-03  0.00000000E+00  8.85997295E-01  2.63929701E+00  1.35395682E+00  1.99455157E-01  6.26440227E-01  0.00000000E+00
 1  5.20099998E-01  6.87499996E-03  0.00000000E+00  1.94947803E+00  8.86200964E-01 -4.81652375E-03  0.00000000E+00  8.86214077E-01  2.63934684E+00  1.35387361E+00  2.34306514E-01  6.26440227E-01  0.00000000E+00
 1  5.20099998E-01  7.12500000E-03  0.00000000E+00  1.94963467E+00  8.86416197E-01 -5.10752853E-03  0.00000000E+00  8.86430919E-01  2.63939691E+00  1.35379052E+00  2.69157857E-01  6.26440227E-01  0.00000000E+00
 1  5.20099998E-01  7.37500004E-03  0.00000000E+00  1.94979119E+00  8.86631429E-01 -5.39853284E-03  0.00000000E+00  8.86647880E-01  2.63944674E+00  1.35370731E+00  3.04009229E-01  6.26440227E-01  0.00000000E+00
 1  5.20099998E-01  7.62500009E-03  0.00000000E+00  1.94994783E+00  8.86846662E-01 -5.68953762E-03  0.00000000E+00  8.86864901E-01  2.63949656E+00  1.35362422E+00  3.38860571E-01  6.26440227E-01  0.00000000E+00
 1  5.20099998E-01  7.87500013E-03  0.00000000E+00  1.95010448E+00  8.87061894E-01 -5.98054240E-03  0.00000000E+00  8.87082040E-01  2.63954639E+00  1.35354102E+00  3.73711914E-01  6.26440227E-01  0.00000000E+00
 1  5.20099998E-01  8.12499970E-03  0.00000000E+00  1.95029891E+00  8.87309074E-01 -6.31870702E-03  0.00000000E+00  8.87331545E-01  2.63959932E+00  1.35343313E+00  4.05608207E-01  9.29445207E-01  0.00000000E+00
 1  5.20099998E-01  8.37500021E-03  0.00000000E+00  1.95053136E+00  8.87588143E-01 -6.70403102E-03  0.00000000E+00  8.87613475E-01  2.63965511E+00  1.35330057E+00  4.34549421E-01  9.29445207E-01  0.00000000E+00
 1  5.20099998E-01  8.62499978E-03  0.00000000E+00  1.95076370E+00  8.87867272E-01 -7.08935549E-03  0.00000000E+00  8.87895584E-01  2.63971090E+00  1.35316789E+00  4.63490635E-01  9.29445207E-01  0.00000000E+00
 1  5.20099998E-01  8.87500029E-03  0.00000000E+00  1.95099604E+00  8.88146400E-01 -7.47467950E-03  0.00000000E+00  8.88177872E-01  2.63976645E+00  1.35303533E+00  4.92431849E-01  9.29445207E-01  0.00000000E+00
 1  5.20099998E-01  9.12499987E-03  0.00000000E+00  1.95122838E+00  8.88425529E-01 -7.86000397E-03  0.00000000E+00  8.88460279E-01  2.63982201E+00  1.35290265E+00  5.21373093E-01  9.29445207E-01  0.00000000E+00
 1  5.20099998E-01  9.37500037E-03  0.00000000E+00  1.95146072E+00  8.88704658E-01 -8.24532751E-03  0.00000000E+00  8.88742924E-01  2.63987756E+00  1.35277009E+00  5.50314307E-01  9.29445207E-01  0.00000000E+00
 1  5.20099998E-01  9.62499995E-03  0.00000000E+00  1.95169318E+00  8.88983786E-01 -8.63065198E-03  0.00000000E+00  8.89025629E-01  2.63993311E+00  1.35263741E+00  5.79255521E-01  9.29445207E-01  0.00000000E+00
 1  5.20099998E-01  9.87500045E-03  0.00000000E+00  1.95192552E+00  8.89262855E-01 -9.01597645E-03  0.00000000E+00  8.89308572E-01  2.63998866E+00  1.35250485E+00  6.08196735E-01  9.29445207E-01  0.00000000E+00
 1  5.20099998E-01  1.01250000E-02  0.00000000E+00  1.95219004E+00  8.89580846E-01 -9.42772347E-03  0.00000000E+00  8.89630854E-01  2.64004135E+00  1.35234857E+00  6.26296341E-01  1.18706012E+00  0.00000000E+00
 1  5.20099998E-01  1.03749996E-02  0.00000000E+00  1.95248675E+00  8.89937758E-01 -9.86589305E-03  0.00000000E+00  8.89992416E-01  2.64009166E+00  1.35216880E+00  6.33554459E-01  1.18706012E+00  0.00000000E+00
 1  5.20099998E-01  1.06250001E-02  0.00000000E+00  1.95278358E+00  8.90294611E-01 -1.03040636E-02  0.00000000E+00  8.90354216E-01  2.64014196E+00  1.35198903E+00  6.40812576E-01  1.18706012E+00  0.00000000E+00
 1  5.20099998E-01  1.08749997E-02  0.00000000E+00  1.95308030E+00  8.90651464E-01 -1.07422331E-02  0.00000000E+00  8.90716255E-01  2.64019203E+00  1.35180914E+00  6.48070693E-01  1.18706012E+00  0.00000000E+00
 1  5.20099998E-01  1.11250002E-02  0.00000000E+00  1.95337713E+00  8.91008377E-01 -1.11804027E-02  0.00000000E+00  8.91078472E-01  2.64024186E+00  1.35162938E+00  6.55328810E-01  1.18706012E+00  0.00000000E+00
 1  5.20099998E-01  1.13749998E-02  0.00000000E+00  1.95367384E+00  8.91365230E-01 -1.16185732E-02  0.00000000E+00  8.91440928E-01  2.64029169E+00  1.35144961E+00  6.62586927E-01  1.18706012E+00  0.00000000E+00
 1  5.20099998E-01  1.16250003E-02  0.00000000E+00  1.95397067E+00  8.91722083E-01 -1.20567428E-02  0.00000000E+00  8.91803563E-01  2.64034152E+00  1.35126984E+00  6.69845045E-01  1.18706012E+00  0.00000000E+00
 1  5.20099998E-01  1.18749999E-02  0.00000000E+00  1.95426738E+00  8.92078936E-01 -1.24949124E-02  0.00000000E+00  8.92166436E-01  2.64039111E+00  1.35108995E+00  6.77103162E-01  1.18706012E+00  0.00000000E+00
 1  5.20099998E-01  1.21250004E-02  0.00000000E+00  1.95457208E+00  8.92421603E-01 -1.29189948E-02  0.00000000E+00  8.92515063E-01  2.64044094E+00  1.35090482E+00  6.66289091E-01  1.25044513E+00  0.00000000E+00
 1  5.20099998E-01  1.23749999E-02  0.00000000E+00  1.95488465E+00  8.92749965E-01 -1.33289890E-02  0.00000000E+00  8.92849445E-01  2.64049077E+00  1.35071433E+00  6.37402952E-01  1.25044513E+00  0.00000000E+00
 1  5.20099998E-01  1.26250004E-02  0.00000000E+00  1.95519733E+00  8.93078387E-01 -1.37389842E-02  0.00000000E+00  8.93184006E-01  2.64054060E+00  1.35052383E+00  6.08516812E-01  1.25044513E+00  0.00000000E+00
 1  5.20099998E-01  1.28750000E-02  0.00000000E+00  1.95550990E+00  8.93406749E-01 -1.41489785E-02  0.00000000E+00  8.93518806E-01  2.64059019E+00  1.35033333E+00  5.79630613E-01  1.25044513E+00  0.00000000E+00
 1  5.20099998E-01  1.31249996E-02  0.00000000E+00  1.95582259E+00  8.93735111E-01 -1.45589737E-02  0.00000000E+00  8.93853724E-01  2.64063978E+00  1.35014284E+00  5.50744474E-01  1.25044513E+00  0.00000000E+00
 1  5.20099998E-01  1.33750001E-02  0.00000000E+00  1.95613515E+00  8.94063532E-01 -1.49689680E-02  0.00000000E+00  8.94188821E-01  2.64068913E+00  1.34995234E+00  5.21858335E-01  1.25044513E+00  0.00000000E+00
 1  5.20099998E-01  1.36249997E-02  0.00000000E+00  1.95644772E+00  8.94391894E-01 -1.53789623E-02  0.00000000E+00  8.94524097E-01  2.64073849E+00  1.34976184E+00  4.92972165E-01  1.25044513E+00  0.00000000E+00
 1  5.20099998E-01  1.38750002E-02  0.00000000E+00  1.95676041E+00  8.94720316E-01 -1.57889575E-02  0.00000000E+00  8.94859612E-01  2.64078760E+00  1.34957135E+00  4.64085996E-01  1.25044513E+00  0.00000000E+00
 1  5.20099998E-01  1.41249998E-02  0.00000000E+00  1.95705104E+00  8.94990742E-01 -1.61376353E-02  0.00000000E+00  8.95136237E-01  2.64084673E+00  1.34940112E+00  4.18847084E-01  1.07490110E+00  0.00000000E+00
 1  5.20099998E-01  1.43750003E-02  0.00000000E+00  1.95731974E+00  8.95203233E-01 -1.64249968E-02  0.00000000E+00  8.95353913E-01  2.64091587E+00  1.34925115E+00  3.57255429E-01  1.07490110E+00  0.00000000E+00
 1  5.20099998E-01  1.46249998E-02  0.00000000E+00  1.95758843E+00  8.95415783E-01 -1.67123582E-02  0.00000000E+00  8.95571709E-01  2.64098501E+00  1.34910119E+00  2.95663744E-01  1.07490110E+00  0.00000000E+00
 1  5.20099998E-01  1.48750003E-02  0.00000000E+00  1.95785725E+00  8.95628273E-01 -1.69997215E-02  0.00000000E+00  8.95789564E-01  2.64105392E+00  1.34895134E+00  2.34072089E-01  1.07490110E+00  0.00000000E+00
 1  5.20099998E-01  1.51249999E-02  0.00000000E+00  1.95812595E+00  8.95840764E-01 -1.72870830E-02  0.00000000E+00  8.96007538E-01  2.64112282E+00  1.34880137E+00  1.72480419E-01  1.07490110E+00  0.00000000E+00
 1  5.20099998E-01  1.53750004E-02  0.00000000E+00  1.95839465E+00  8.96053255E-01 -1.75744444E-02  0.00000000E+00  8.96225631E-01  2.64119172E+00  1.34865141E+00  1.10888757E-01  1.07490110E+00  0.00000000E+00
 1  5.20099998E-01  1.56250000E-02  0.00000000E+00  1.95866334E+00  8.96265805E-01 -1.78618059E-02  0.00000000E+00  8.96443725E-01  2.64126039E+00  1.34850144E+00  4.92970869E-02  1.07490110E+00  0.00000000E+00
 1  5.20099998E-01  1.58750005E-02  0.00000000E+00  1.95893216E+00  8.96478295E-01 -1.81491692E-02  0.00000000E+00  8.96661997E-01  2.64132905E+00  1.34835148E+00 -1.22945774E-02  1.07490110E+00  0.00000000E+00
 1  5.20099998E-01  1.61249992E-02  0.00000000E+00  1.95915794E+00  8.96607697E-01 -1.83512941E-02  0.00000000E+00  8.96795452E-01  2.64142203E+00  1.34824347E+00 -7.71242678E-02  7.31752157E-01  0.00000000E+00
 1  5.20099998E-01  1.63749997E-02  0.00000000E+00  1.95934093E+00  8.96653950E-01 -1.84681825E-02  0.00000000E+00  8.96844149E-01  2.64153910E+00  1.34817743E+00 -1.45191982E-01  7.31752157E-01  0.00000000E+00
 1  5.20099998E-01  1.66250002E-02  0.00000000E+00  1.95952380E+00  8.96700203E-01 -1.85850710E-02  0.00000000E+00  8.96892786E-01  2.64165640E+00  1.34811139E+00 -2.13259682E-01  7.31752157E-01  0.00000000E+00
 1  5.20099998E-01  1.68750007E-02  0.00000000E+00  1.95970678E+00  8.96746516E-01 -1.87019594E-02  0.00000000E+00  8.96941483E-01  2.64177346E+00  1.34804535E+00 -2.81327397E-01  7.31752157E-01  0.00000000E+00
 1  5.20099998E-01  1.71249993E-02  0.00000000E+00  1.95988965E+00  8.96792769E-01 -1.88188478E-02  0.00000000E+00  8.96990180E-01  2.64189053E+00  1.34797919E+00 -3.49395096E-01  7.31752157E-01  0.00000000E+00
 1  5.20099998E-01  1.73749998E-02  0.00000000E+00  1.96007264E+00  8.96839023E-01 -1.89357363E-02  0.00000000E+00  8.97038937E-01  2.64200759E+00  1.34791315E+00 -4.17462826E-01  7.31752157E-01  0.00000000E+00
 1  5.20099998E-01  1.76250003E-02  0.00000000E+00  1.96025562E+00  8.96885335E-01 -1.90526247E-02  0.00000000E+00  8.97087693E-01  2.64212465E+00  1.34784710E+00 -4.85530525E-01  7.31752157E-01  0.00000000E+00
 1  5.20099998E-01  1.78750008E-02  0.00000000E+00  1.96043849E+00  8.96931589E-01 -1.91695131E-02  0.00000000E+00  8.97136450E-01  2.64224172E+00  1.34778106E+00 -5.53598225E-01  7.31752157E-01  0.00000000E+00
 1  5.20099998E-01  1.81249995E-02  0.00000000E+00  1.96057725E+00  8.96913111E-01 -1.92214642E-02  0.00000000E+00  8.97119045E-01  2.64238238E+00  1.34775734E+00 -6.06513977E-01  3.78101021E-01  0.00000000E+00
 1  5.20099998E-01  1.83750000E-02  0.00000000E+00  1.96067178E+00  8.96829844E-01 -1.92084797E-02  0.00000000E+00  8.97035480E-01  2.64254642E+00  1.34777606E+00 -6.44277751E-01  3.78101021E-01  0.00000000E+00
 1  5.20099998E-01  1.86250005E-02  0.00000000E+00  1.96076632E+00  8.96746516E-01 -1.91954952E-02  0.00000000E+00  8.96951973E-01  2.64271045E+00  1.34779477E+00 -6.82041526E-01  3.78101021E-01  0.00000000E+00
 1  5.20099998E-01  1.88749991E-02  0.00000000E+00  1.96086085E+00  8.96663249E-01 -1.91825107E-02  0.00000000E+00  8.96868408E-01  2.64287448E+00  1.34781337E+00 -7.19805300E-01  3.78101021E-01  0.00000000E+00
 1  5.20099998E-01  1.91249996E-02  0.00000000E+00  1.96095538E+00  8.96579981E-01 -1.91695243E-02  0.00000000E+00  8.96784902E-01  2.64303851E+00  1.34783208E+00 -7.57569075E-01  3.78101021E-01  0.00000000E+00
 1  5.20099998E-01  1.93750001E-02  0.00000000E+00  1.96104991E+00  8.96496713E-01 -1.91565398E-02  0.00000000E+00  8.96701336E-01  2.64320254E+00  1.34785080E+00 -7.95332849E-01  3.78101021E-01  0.00000000E+00
 1  5.20099998E-01  1.96250007E-02  0.00000000E+00  1.96114445E+00  8.96413445E-01 -1.91435553E-02  0.00000000E+00  8.96617830E-01  2.64336681E+00  1.34786952E+00 -8.33096623E-01  3.78101021E-01  0.00000000E+00
 1  5.20099998E-01  1.98749993E-02  0.00000000E+00  1.96123886E+00  8.96330118E-01 -1.91305708E-02  0.00000000E+00  8.96534264E-01  2.64353085E+00  1.34788823E+00 -8.70860398E-01  3.78101021E-01  0.00000000E+00
 1  5.20099998E-01  2.01249998E-02  0.00000000E+00  1.96129882E+00  8.96233737E-01 -1.91082377E-02  0.00000000E+00  8.96437407E-01  2.64368272E+00  1.34792459E+00 -8.82599175E-01  1.00702077E-01  0.00000000E+00
 1  5.20099998E-01  2.03750003E-02  0.00000000E+00  1.96132398E+00  8.96124184E-01 -1.90765578E-02  0.00000000E+00  8.96327198E-01  2.64382267E+00  1.34797859E+00 -8.68313074E-01  1.00702077E-01  0.00000000E+00
 1  5.20099998E-01  2.06250008E-02  0.00000000E+00  1.96134913E+00  8.96014631E-01 -1.90448761E-02  0.00000000E+00  8.96216989E-01  2.64396238E+00  1.34803259E+00 -8.54026973E-01  1.00702077E-01  0.00000000E+00
 1  5.20099998E-01  2.08749995E-02  0.00000000E+00  1.96137428E+00  8.95905077E-01 -1.90131962E-02  0.00000000E+00  8.96106839E-01  2.64410233E+00  1.34808660E+00 -8.39740813E-01  1.00702077E-01  0.00000000E+00
 1  5.20099998E-01  2.11250000E-02  0.00000000E+00  1.96139944E+00  8.95795524E-01 -1.89815145E-02  0.00000000E+00  8.95996630E-01  2.64424229E+00  1.34814060E+00 -8.25454712E-01  1.00702077E-01  0.00000000E+00
 1  5.20099998E-01  2.13750005E-02  0.00000000E+00  1.96142459E+00  8.95685971E-01 -1.89498346E-02  0.00000000E+00  8.95886421E-01  2.64438200E+00  1.34819460E+00 -8.11168551E-01  1.00702077E-01  0.00000000E+00
 1  5.20099998E-01  2.16249991E-02  0.00000000E+00  1.96144986E+00  8.95576417E-01 -1.89181529E-02  0.00000000E+00  8.95776212E-01  2.64452195E+00  1.34824860E+00 -7.96882451E-01  1.00702077E-01  0.00000000E+00
 1  5.20099998E-01  2.18749996E-02  0.00000000E+00  1.96147501E+00  8.95466864E-01 -1.88864730E-02  0.00000000E+00  8.95666003E-01  2.64466190E+00  1.34830260E+00 -7.82596290E-01  1.00702077E-01  0.00000000E+00
 1  5.20099998E-01  2.21250001E-02  0.00000000E+00  1.96146214E+00  8.95394862E-01 -1.88983399E-02  0.00000000E+00  8.95594239E-01  2.64472103E+00  1.34834158E+00 -7.44988024E-01 -2.03189239E-01  0.00000000E+00
 1  5.20099998E-01  2.23750006E-02  0.00000000E+00  1.96141136E+00  8.95360351E-01 -1.89537536E-02  0.00000000E+00  8.95560920E-01  2.64469981E+00  1.34836566E+00 -6.84057534E-01 -2.03189239E-01  0.00000000E+00
 1  5.20099998E-01  2.26249993E-02  0.00000000E+00  1.96136057E+00  8.95325780E-01 -1.90091692E-02  0.00000000E+00  8.95527601E-01  2.64467835E+00  1.34838963E+00 -6.23127043E-01 -2.03189239E-01  0.00000000E+00
 1  5.20099998E-01  2.28749998E-02  0.00000000E+00  1.96130979E+00  8.95291269E-01 -1.90645829E-02  0.00000000E+00  8.95494223E-01  2.64465690E+00  1.34841371E+00 -5.62196612E-01 -2.03189239E-01  0.00000000E+00
 1  5.20099998E-01  2.31250003E-02  0.00000000E+00  1.96125901E+00  8.95256758E-01 -1.91199984E-02  0.00000000E+00  8.95460904E-01  2.64463544E+00  1.34843767E+00 -5.01266122E-01 -2.03189239E-01  0.00000000E+00
 1  5.20099998E-01  2.33750008E-02  0.00000000E+00  1.96120822E+00  8.95222247E-01 -1.91754121E-02  0.00000000E+00  8.95427585E-01  2.64461422E+00  1.34846175E+00 -4.40335631E-01 -2.03189239E-01  0.00000000E+00
 1  5.20099998E-01  2.36249994E-02  0.00000000E+00  1.96115744E+00  8.95187736E-01 -1.92308258E-02  0.00000000E+00  8.95394266E-01  2.64459276E+00  1.34848571E+00 -3.79405171E-01 -2.03189239E-01  0.00000000E+00
 1  5.20099998E-01  2.38750000E-02  0.00000000E+00  1.96110666E+00  8.95153224E-01 -1.92862414E-02  0.00000000E+00  8.95360947E-01  2.64457130E+00  1.34850979E+00 -3.18474710E-01 -2.03189239E-01  0.00000000E+00
 1  5.20099998E-01  2.41250005E-02  0.00000000E+00  1.96099687E+00  8.95172417E-01 -1.93998367E-02  0.00000000E+00  8.95382583E-01  2.64441252E+00  1.34850419E+00 -2.46049702E-01 -6.75164640E-01  0.00000000E+00
 1  5.20099998E-01  2.43749991E-02  0.00000000E+00  1.96082807E+00  8.95245314E-01 -1.95716154E-02  0.00000000E+00  8.95459235E-01  2.64411616E+00  1.34846914E+00 -1.62130177E-01 -6.75164640E-01  0.00000000E+00
 1  5.20099998E-01  2.46249996E-02  0.00000000E+00  1.96065927E+00  8.95318210E-01 -1.97433941E-02  0.00000000E+00  8.95535886E-01  2.64381981E+00  1.34843409E+00 -7.82106593E-02 -6.75164640E-01  0.00000000E+00
 1  5.20099998E-01  2.48750001E-02  0.00000000E+00  1.96049047E+00  8.95391107E-01 -1.99151728E-02  0.00000000E+00  8.95612538E-01  2.64352345E+00  1.34839904E+00  5.70885930E-03 -6.75164640E-01  0.00000000E+00
 1  5.20099998E-01  2.51250006E-02  0.00000000E+00  1.96032166E+00  8.95464003E-01 -2.00869497E-02  0.00000000E+00  8.95689309E-01  2.64322710E+00  1.34836400E+00  8.96283761E-02 -6.75164640E-01  0.00000000E+00
 1  5.20099998E-01  2.53749993E-02  0.00000000E+00  1.96015286E+00  8.95536959E-01 -2.02587284E-02  0.00000000E+00  8.95766020E-01  2.64293075E+00  1.34832895E+00  1.73547894E-01 -6.75164640E-01  0.00000000E+00
 1  5.20099998E-01  2.56249998E-02  0.00000000E+00  1.95998406E+00  8.95609856E-01 -2.04305071E-02  0.00000000E+00  8.95842850E-01  2.64263439E+00  1.34829390E+00  2.57467419E-01 -6.75164640E-01  0.00000000E+00
 1  5.20099998E-01  2.58750003E-02  0.00000000E+00  1.95981526E+00  8.95682752E-01 -2.06022840E-02  0.00000000E+00  8.95919681E-01  2.64233828E+00  1.34825885E+00  3.41386944E-01 -6.75164640E-01  0.00000000E+00
 1  5.20099998E-01  2.61250008E-02  0.00000000E+00  1.95959592E+00  8.95785511E-01 -2.08012443E-02  0.00000000E+00  8.96026969E-01  2.64194155E+00  1.34820735E+00  4.16277319E-01 -1.07992291E+00  0.00000000E+00
 1  5.20099998E-01  2.63749994E-02  0.00000000E+00  1.95932591E+00  8.95918131E-01 -2.10273825E-02  0.00000000E+00  8.96164834E-01  2.64144444E+00  1.34813941E+00  4.82138544E-01 -1.07992291E+00  0.00000000E+00
 1  5.20099998E-01  2.66249999E-02  0.00000000E+00  1.95905590E+00  8.96050692E-01 -2.12535225E-02  0.00000000E+00  8.96302760E-01  2.64094734E+00  1.34807146E+00  5.47999740E-01 -1.07992291E+00  0.00000000E+00
 1  5.20099998E-01  2.68750004E-02  0.00000000E+00  1.95878589E+00  8.96183312E-01 -2.14796606E-02  0.00000000E+00  8.96440685E-01  2.64045048E+00  1.34800363E+00  6.13860965E-01 -1.07992291E+00  0.00000000E+00
 1  5.20099998E-01  2.71249991E-02  0.00000000E+00  1.95851600E+00  8.96315932E-01 -2.17058007E-02  0.00000000E+00  8.96578729E-01  2.63995361E+00  1.34793568E+00  6.79722190E-01 -1.07992291E+00  0.00000000E+00
 1  5.20099998E-01  2.73749996E-02  0.00000000E+00  1.95824599E+00  8.96448553E-01 -2.19319407E-02  0.00000000E+00  8.96716774E-01  2.63945651E+00  1.34786773E+00  7.45583415E-01 -1.07992291E+00  0.00000000E+00
 1  5.20099998E-01  2.76250001E-02  0.00000000E+00  1.95797598E+00  8.96581113E-01 -2.21580788E-02  0.00000000E+00  8.96854877E-01  2.63895965E+00  1.34779978E+00  8.11444640E-01 -1.07992291E+00  0.00000000E+00
 1  5.20099998E-01  2.78750006E-02  0.00000000E+00  1.95770597E+00  8.96713734E-01 -2.23842189E-02  0.00000000E+00  8.96993101E-01  2.63846278E+00  1.34773195E+00  8.77305865E-01 -1.07992291E+00  0.00000000E+00
 1  5.20099998E-01  2.81249993E-02  0.00000000E+00  1.95747912E+00  8.96821022E-01 -2.25765686E-02  0.00000000E+00  8.97105157E-01  2.63805699E+00  1.34768081E+00  8.99843454E-01 -7.35214591E-01  0.00000000E+00
 1  5.20099998E-01  2.83749998E-02  0.00000000E+00  1.95729530E+00  8.96903038E-01 -2.27351319E-02  0.00000000E+00  8.97191167E-01  2.63774228E+00  1.34764659E+00  8.79057467E-01 -7.35214591E-01  0.00000000E+00
 1  5.20099998E-01  2.86250003E-02  0.00000000E+00  1.95711148E+00  8.96985054E-01 -2.28936933E-02  0.00000000E+00  8.97277176E-01  2.63742757E+00  1.34761238E+00  8.58271420E-01 -7.35214591E-01  0.00000000E+00
 1  5.20099998E-01  2.88750008E-02  0.00000000E+00  1.95692778E+00  8.97067070E-01 -2.30522566E-02  0.00000000E+00  8.97363245E-01  2.63711286E+00  1.34757805E+00  8.37485433E-01 -7.35214591E-01  0.00000000E+00
 1  5.20099998E-01  2.91249994E-02  0.00000000E+00  1.95674396E+00  8.97149086E-01 -2.32108179E-02  0.00000000E+00  8.97449315E-01  2.63679814E+00  1.34754384E+00  8.16699445E-01 -7.35214591E-01  0.00000000E+00
 1  5.20099998E-01  2.93749999E-02  0.00000000E+00  1.95656013E+00  8.97231102E-01 -2.33693793E-02  0.00000000E+00  8.97535384E-01  2.63648343E+00  1.34750950E+00  7.95913458E-01 -7.35214591E-01  0.00000000E+00
 1  5.20099998E-01  2.96250004E-02  0.00000000E+00  1.95637631E+00  8.97313118E-01 -2.35279426E-02  0.00000000E+00  8.97621512E-01  2.63616872E+00  1.34747529E+00  7.75127411E-01 -7.35214591E-01  0.00000000E+00
 1  5.20099998E-01  2.98749991E-02  0.00000000E+00  1.95619249E+00  8.97395134E-01 -2.36865040E-02  0.00000000E+00  8.97707701E-01  2.63585401E+00  1.34744108E+00  7.54341424E-01 -7.35214591E-01  0.00000000E+00
 1  5.20099998E-01  3.01249996E-02  0.00000000E+00  1.95621276E+00  8.97379220E-01 -2.37417854E-02  0.00000000E+00  8.97693217E-01  2.63592553E+00  1.34746361E+00  6.54525101E-01  8.97481441E-01  0.00000000E+00
 1  5.20099998E-01  3.03750001E-02  0.00000000E+00  1.95643711E+00  8.97265375E-01 -2.36937851E-02  0.00000000E+00  8.97578120E-01  2.63638306E+00  1.34754288E+00  4.75678533E-01  8.97481441E-01  0.00000000E+00
 1  5.20099998E-01  3.06250006E-02  0.00000000E+00  1.95666158E+00  8.97151530E-01 -2.36457828E-02  0.00000000E+00  8.97463083E-01  2.63684058E+00  1.34762216E+00  2.96831936E-01  8.97481441E-01  0.00000000E+00
 1  5.20099998E-01  3.08749992E-02  0.00000000E+00  1.95688593E+00  8.97037625E-01 -2.35977825E-02  0.00000000E+00  8.97347987E-01  2.63729811E+00  1.34770155E+00  1.17985353E-01  8.97481441E-01  0.00000000E+00
 1  5.20099998E-01  3.11249997E-02  0.00000000E+00  1.95711029E+00  8.96923780E-01 -2.35497821E-02  0.00000000E+00  8.97232890E-01  2.63775563E+00  1.34778082E+00 -6.08612373E-02  8.97481441E-01  0.00000000E+00
 1  5.20099998E-01  3.13749984E-02  0.00000000E+00  1.95733464E+00  8.96809936E-01 -2.35017817E-02  0.00000000E+00  8.97117794E-01  2.63821340E+00  1.34786010E+00 -2.39707828E-01  8.97481441E-01  0.00000000E+00
 1  5.20099998E-01  3.16249989E-02  0.00000000E+00  1.95755899E+00  8.96696091E-01 -2.34537795E-02  0.00000000E+00  8.97002757E-01  2.63867092E+00  1.34793937E+00 -4.18554425E-01  8.97481441E-01  0.00000000E+00
 1  5.20099998E-01  3.18749994E-02  0.00000000E+00  1.95778334E+00  8.96582186E-01 -2.34057792E-02  0.00000000E+00  8.96887660E-01  2.63912868E+00  1.34801877E+00 -5.97401023E-01  8.97481441E-01  0.00000000E+00
 1  5.20099998E-01  3.21249999E-02  0.00000000E+00  1.95832944E+00  8.96309674E-01 -2.32075062E-02  0.00000000E+00  8.96610081E-01  2.64019203E+00  1.34818578E+00 -8.50309014E-01  3.47122383E+00  0.00000000E+00
 1  5.20099998E-01  3.23750004E-02  0.00000000E+00  1.95919728E+00  8.95878494E-01 -2.28589624E-02  0.00000000E+00  8.96170080E-01  2.64186120E+00  1.34844065E+00 -1.17727840E+00  3.47122383E+00  0.00000000E+00
 1  5.20099998E-01  3.26250009E-02  0.00000000E+00  1.96006513E+00  8.95447314E-01 -2.25104187E-02  0.00000000E+00  8.95730197E-01  2.64353085E+00  1.34869540E+00 -1.50424790E+00  3.47122383E+00  0.00000000E+00
 1  5.20099998E-01  3.28750014E-02  0.00000000E+00  1.96093285E+00  8.95016134E-01 -2.21618731E-02  0.00000000E+00  8.95290494E-01  2.64520097E+00  1.34895027E+00 -1.83121729E+00  3.47122383E+00  0.00000000E+00
 1  5.20099998E-01  3.31249982E-02  0.00000000E+00  1.96180069E+00  8.94584954E-01 -2.18133293E-02  0.00000000E+00  8.94850850E-01  2.64687157E+00  1.34920514E+00 -2.15818667E+00  3.47122383E+00  0.00000000E+00
 1  5.20099998E-01  3.33749987E-02  0.00000000E+00  1.96266854E+00  8.94153774E-01 -2.14647856E-02  0.00000000E+00  8.94411385E-01  2.64854240E+00  1.34945989E+00 -2.48515606E+00  3.47122383E+00  0.00000000E+00
 1  5.20099998E-01  3.36249992E-02  0.00000000E+00  1.96353626E+00  8.93722594E-01 -2.11162400E-02  0.00000000E+00  8.93971980E-01  2.65021396E+00  1.34971476E+00 -2.81212544E+00  3.47122383E+00  0.00000000E+00
 1  5.20099998E-01  3.38749997E-02  0.00000000E+00  1.96440411E+00  8.93291414E-01 -2.07676962E-02  0.00000000E+00  8.93532753E-01  2.65188575E+00  1.34996963E+00 -3.13909507E+00  3.47122383E+00  0.00000000E+00
 1  5.20099998E-01  3.41250002E-02  0.00000000E+00  1.96554828E+00  8.92712951E-01 -2.02958845E-02  0.00000000E+00  8.92943621E-01  2.65407896E+00  1.35029948E+00 -3.46585011E+00  5.68254852E+00  0.00000000E+00
 1  5.20099998E-01  3.43750007E-02  0.00000000E+00  1.96696901E+00  8.91987324E-01 -1.97008066E-02  0.00000000E+00  8.92204821E-01  2.65679383E+00  1.35070443E+00 -3.79239058E+00  5.68254852E+00  0.00000000E+00
 1  5.20099998E-01  3.46250013E-02  0.00000000E+00  1.96838963E+00  8.91261637E-01 -1.91057269E-02  0.00000000E+00  8.91466379E-01  2.65950990E+00  1.35110950E+00 -4.11893129E+00  5.68254852E+00  0.00000000E+00
 1  5.20099998E-01  3.48750018E-02  0.00000000E+00  1.96981025E+00  8.90535951E-01 -1.85106490E-02  0.00000000E+00  8.90728295E-01  2.66222715E+00  1.35151446E+00 -4.44547224E+00  5.68254852E+00  0.00000000E+00