# CoordinateSystem = xByUzL
# Units = ISS
VARIABLES = "Found","X","Y","Z","Density","VelocityX","VelocityY","VelocityZ","VelocityMag","Pressure","Temperature","DensityGradientX","DensityGradientY","DensityGradientZ"
ZONE T="t = 7.00000000E-01",I=8000,SOLUTIONTIME=7.00000000E-01
 1  1.25000006E-04  4.00099993E-01  0.00000000E+00  1.00000000E+00  1.77482390E+00  8.87231606E-15  0.00000000E+00  1.77482390E+00  1.00000000E+00  1.00000000E+00  2.33252306E-12 -2.13841445E-12  0.00000000E+00
 1  3.75000003E-04  4.00099993E-01  0.00000000E+00  1.00000000E+00  1.77482390E+00  8.75265064E-15  0.00000000E+00  1.77482390E+00  1.00000000E+00  1.00000000E+00  2.33252306E-12 -2.08004447E-12  0.00000000E+00
 1  6.24999986E-04  4.00099993E-01  0.00000000E+00  1.00000000E+00  1.77482390E+00  8.63298436E-15  0.00000000E+00  1.77482390E+00  1.00000000E+00  1.00000000E+00  2.33252306E-12 -2.05009620E-12  0.00000000E+00
 1  8.75000027E-04  4.00099993E-01  0.00000000E+00  1.00000000E+00  1.77482390E+00  8.51331894E-15  0.00000000E+00  1.77482390E+00  1.00000000E+00  1.00000000E+00  2.33252306E-12 -1.99172623E-12  0.00000000E+00
 1  1.12499995E-03  4.00099993E-01  0.00000000E+00  1.00000000E+00  1.77482390E+00  8.39365266E-15  0.00000000E+00  1.77482390E+00  1.00000000E+00  1.00000000E+00  2.33252306E-12 -1.93335625E-12  0.00000000E+00
 1  1.37499999E-03  4.00099993E-01  0.00000000E+00  1.00000000E+00  1.77482390E+00  8.27398639E-15  0.00000000E+00  1.77482390E+00  1.00000000E+00  1.00000000E+00  2.36094477E-12 -1.86077542E-12  0.00000000E+00
 1  1.62500003E-03  4.00099993E-01  0.00000000E+00  1.00000000E+00  1.77482390E+00  8.15432096E-15  0.00000000E+00  1.77482390E+00  1.00000000E+00  1.00000000E+00  2.33252306E-12 -1.80240545E-12  0.00000000E+00
 1  1.87499996E-03  4.00099993E-01  0.00000000E+00  1.00000000E+00  1.77482390E+00  8.03465469E-15  0.00000000E+00  1.77482390E+00  1.00000000E+00  1.00000000E+00  2.33252306E-12 -1.75824633E-12  0.00000000E+00
 1  2.12500012E-03  4.00099993E-01  0.00000000E+00  1.00000000E+00  1.77482390E+00  7.91498926E-15  0.00000000E+00  1.77482390E+00  1.00000000E+00  1.00000000E+00  2.33252306E-12 -1.69987635E-12  0.00000000E+00
 1  2.37499992E-03  4.00099993E-01  0.00000000E+00  1.00000000E+00  1.77482390E+00  7.79532299E-15  0.00000000E+00  1.77482390E+00  1.00000000E+00  1.00000000E+00  2.33207897E-12 -1.64150638E-12  0.00000000E+00
 1  2.62499996E-03  4.00099993E-01  0.00000000E+00  1.00000000E+00  1.77482390E+00  7.67565671E-15  0.00000000E+00  1.77482390E+00  1.00000000E+00  1.00000000E+00  2.33207897E-12 -1.58313640E-12  0.00000000E+00
 1  2.87500001E-03  4.00099993E-01  0.00000000E+00  1.00000000E+00  1.77482390E+00  7.55599129E-15  0.00000000E+00  1.77482390E+00  1.00000000E+00  1.00000000E+00  2.33207897E-12 -1.52476642E-12  0.00000000E+00
 1  3.12500005E-03  4.00099993E-01  0.00000000E+00  1.00000000E+00  1.77482390E+00  7.43632501E-15  0.00000000E+00  1.77482390E+00  1.00000000E+00  1.00000000E+00  2.33207897E-12 -1.46639645E-12  0.00000000E+00
 1  3.37500009E-03  4.00099993E-01  0.00000000E+00  1.00000000E+00  1.77482390E+00  7.31665959E-15  0.00000000E+00  1.77482390E+00  1.00000000E+00  1.00000000E+00  2.33252306E-12 -1.40802647E-12  0.00000000E+00
 1  3.62499990E-03  4.00099993E-01  0.00000000E+00  1.00000000E+00  1.77482390E+00  7.19699331E-15  0.00000000E+00  1.77482390E+00  1.00000000E+00  1.00000000E+00  2.33252306E-12 -1.34965650E-12  0.00000000E+00
 1  3.87499994E-03  4.00099993E-01  0.00000000E+00  1.00000000E+00  1.77482390E+00  7.07732746E-15  0.00000000E+00  1.77482390E+00  1.00000000E+00  1.00000000E+00  2.33252306E-12 -1.28418109E-12  0.00000000E+00
 1  4.12499998E-03  4.00099993E-01  0.00000000E+00  1.00000000E+00  1.77482390E+00  6.95766119E-15  0.00000000E+00  1.77482390E+00  1.00000000E+00  1.00000000E+00  2.36094477E-12 -1.25423283E-12  0.00000000E+00
 1  4.37500002E-03  4.00099993E-01  0.00000000E+00  1.00000000E+00  1.77482390E+00  6.83799534E-15  0.00000000E+00  1.77482390E+00  1.00000000E+00  1.00000000E+00  2.33252306E-12 -1.18165200E-12  0.00000000E+00
 1  4.62500006E-03  4.00099993E-01  0.00000000E+00  1.00000000E+00  1.77482390E+00  6.71832949E-15  0.00000000E+00  1.77482390E+00  1.00000000E+00  1.00000000E+00  2.33252306E-12 -1.14459831E-12  0.00000000E+00
 1  4.87500010E-03  4.00099993E-01  0.00000000E+00  1.00000000E+00  1.77482390E+00  6.59866364E-15  0.00000000E+00  1.77482390E+00  1.00000000E+00  1.00000000E+00  2.33252306E-12 -1.08622833E-12  0.00000000E+00
 1  5.12500014E-03  4.00099993E-01  0.00000000E+00  1.00000000E+00  1.77482390E+00  6.47899779E-15  0.00000000E+00  1.77482390E+00  1.00000000E+00  1.00000000E+00  2.33252306E-12 -9.99436645E-13  0.00000000E+00
 1  5.37500018E-03  4.00099993E-01  0.00000000E+00  1.00000000E+00  1.77482390E+00  6.35933152E-15  0.00000000E+00  1.77482390E+00  1.00000000E+00  1.00000000E+00  2.33252306E-12 -9.44619383E-13  0.00000000E+00
 1  5.62500022E-03  4.00099993E-01  0.00000000E+00  1.00000000E+00  1.77482390E+00  6.23966566E-15  0.00000000E+00  1.77482390E+00  1.00000000E+00  1.00000000E+00  2.33207897E-12 -9.04012976E-13  0.00000000E+00
 1  5.87499980E-03  4.00099993E-01  0.00000000E+00  1.00000000E+00  1.77482390E+00  6.11999981E-15  0.00000000E+00  1.77482390E+00  1.00000000E+00  1.00000000E+00  2.33207897E-12 -8.45643000E-13  0.00000000E+00
 1  6.12499984E-03  4.00099993E-01  0.00000000E+00  1.00000000E+00  1.77482390E+00  6.00033396E-15  0.00000000E+00  1.77482390E+00  1.00000000E+00  1.00000000E+00  2.33207897E-12 -7.96154809E-13  0.00000000E+00
 1  6.37499988E-03  4.00099993E-01  0.00000000E+00  1.00000000E+00  1.77482390E+00  5.88066811E-15  0.00000000E+00  1.77482390E+00  1.00000000E+00  1.00000000E+00  2.33207897E-12 -7.27126692E-13  0.00000000E+00
 1  6.62499992E-03  4.00099993E-01  0.00000000E+00  1.00000000E+00  1.77482390E+00  5.76100184E-15  0.00000000E+00  1.77482390E+00  1.00000000E+00  1.00000000E+00  2.33252306E-12 -6.62539468E-13  0.00000000E+00
 1  6.87499996E-03  4.00099993E-01  0.00000000E+00  1.00000000E+00  1.77482390E+00  6.21741834E-15  0.00000000E+00  1.77482390E+00  1.00000000E+00  1.00000000E+00 -2.27284858E-12 -6.82121026E-13  0.00000000E+00
 1  7.12500000E-03  4.00099993E-01  0.00000000E+00  1.00000000E+00  1.77482390E+00  6.78905081E-15  0.00000000E+00  1.77482390E+00  1.00000000E+00  1.00000000E+00 -2.27284858E-12 -7.38964445E-13  0.00000000E+00
 1  7.37500004E-03  4.00099993E-01  0.00000000E+00  1.00000000E+00  1.77482390E+00  7.36068328E-15  0.00000000E+00  1.77482390E+00  1.00000000E+00  1.00000000E+00 -2.27551311E-12 -7.67386155E-13  0.00000000E+00
 1  7.62500009E-03  4.00099993E-01  0.00000000E+00  1.00000000E+00  1.77482390E+00  7.93231532E-15  0.00000000E+00  1.77482390E+00  1.00000000E+00  1.00000000E+00 -2.27551311E-12 -7.67386155E-13  0.00000000E+00
 1  7.87500013E-03  4.00099993E-01  0.00000000E+00  1.00000000E+00  1.77482390E+00  8.50394821E-15  0.00000000E+00  1.77482390E+00  1.00000000E+00  1.00000000E+00 -2.27551311E-12 -8.38440428E-13  0.00000000E+00
 1  8.12499970E-03  4.00099993E-01  0.00000000E+00  1.00000000E+00  1.77482390E+00  9.07558110E-15  0.00000000E+00  1.77482390E+00  1.00000000E+00  1.00000000E+00 -2.27551311E-12 -8.66862138E-13  0.00000000E+00
 1  8.37500021E-03  4.00099993E-01  0.00000000E+00  1.00000000E+00  1.77482390E+00  9.64721314E-15  0.00000000E+00  1.77482390E+00  1.00000000E+00  1.00000000E+00 -2.27551311E-12 -8.81072992E-13  0.00000000E+00
 1  8.62499978E-03  4.00099993E-01  0.00000000E+00  1.00000000E+00  1.77482390E+00  1.02188460E-14  0.00000000E+00  1.77482390E+00  1.00000000E+00  1.00000000E+00 -2.27551311E-12 -9.23705556E-13  0.00000000E+00
 1  8.87500029E-03  4.00099993E-01  0.00000000E+00  1.00000000E+00  1.77482390E+00  1.07904781E-14  0.00000000E+00  1.77482390E+00  1.00000000E+00  1.00000000E+00 -2.27551311E-12 -9.37916411E-13  0.00000000E+00
 1  9.12499987E-03  4.00099993E-01  0.00000000E+00  1.00000000E+00  1.77482390E+00  1.13621110E-14  0.00000000E+00  1.77482390E+00  1.00000000E+00  1.00000000E+00 -2.27551311E-12 -9.80548975E-13  0.00000000E+00
 1  9.37500037E-03  4.00099993E-01  0.00000000E+00  1.00000000E+00  1.77482390E+00  1.19337430E-14  0.00000000E+00  1.77482390E+00  1.00000000E+00  1.00000000E+00 -2.27551311E-12 -1.02318154E-12  0.00000000E+00
 1  9.62499995E-03  4.00099993E-01  0.00000000E+00  1.00000000E+00  1.77482390E+00  1.25053759E-14  0.00000000E+00  1.77482390E+00  1.00000000E+00  1.00000000E+00 -2.27551311E-12 -1.03739239E-12  0.00000000E+00
 1  9.87500045E-03  4.00099993E-01  0.00000000E+00  1.00000000E+00  1.77482390E+00  1.30770088E-14  0.00000000E+00  1.77482390E+00  1.00000000E+00  1.00000000E+00 -2.27551311E-12 -1.06581410E-12  0.00000000E+00
 1  1.01250000E-02  4.00099993E-01  0.00000000E+00  1.00000000E+00  1.77482390E+00  1.36486408E-14  0.00000000E+00  1.77482390E+00  1.00000000E+00  1.00000000E+00 -2.27551311E-12 -1.10844667E-12  0.00000000E+00
 1  1.03749996E-02  4.00099993E-01  0.00000000E+00  1.00000000E+00  1.77482390E+00  1.42202737E-14  0.00000000E+00  1.77482390E+00  1.00000000E+00  1.00000000E+00 -2.27551311E-12 -1.13686838E-12  0.00000000E+00
 1  1.06250001E-02  4.00099993E-01  0.00000000E+00  1.00000000E+00  1.77482390E+00  1.47919058E-14  0.00000000E+00  1.77482390E+00  1.00000000E+00  1.00000000E+00 -2.27551311E-12 -1.16529009E-12  0.00000000E+00
 1  1.08749997E-02  4.00099993E-01  0.00000000E+00  1.00000000E+00  1.77482390E+00  1.53635378E-14  0.00000000E+00  1.77482390E+00  1.00000000E+00  1.00000000E+00 -2.27551311E-12 -1.20792265E-12  0.00000000E+00
 1  1.11250002E-02  4.00099993E-01  0.00000000E+00  1.00000000E+00  1.77482390E+00  1.59351715E-14  0.00000000E+00  1.77482390E+00  1.00000000E+00  1.00000000E+00 -2.27551311E-12 -1.22923893E-12  0.00000000E+00
 1  1.13749998E-02  4.00099993E-01  0.00000000E+00  1.00000000E+00  1.77482390E+00  1.65068036E-14  0.00000000E+00  1.77482390E+00  1.00000000E+00  1.00000000E+00 -2.27551311E-12 -1.28608235E-12  0.00000000E+00
 1  1.16250003E-02  4.00099993E-01  0.00000000E+00  1.00000000E+00  1.77482390E+00  1.70784356E-14  0.00000000E+00  1.77482390E+00  1.00000000E+00  1.00000000E+00 -2.27551311E-12 -1.30029321E-12  0.00000000E+00
 1  1.18749999E-02  4.00099993E-01  0.00000000E+00  1.00000000E+00  1.77482390E+00  1.76500694E-14  0.00000000E+00  1.77482390E+00  1.00000000E+00  1.00000000E+00 -2.27551311E-12 -1.32160949E-12  0.00000000E+00
 1  1.21250004E-02  4.00099993E-01  0.00000000E+00  1.00000000E+00  1.77482390E+00  1.82217014E-14  0.00000000E+00  1.77482390E+00  1.00000000E+00  1.00000000E+00 -2.27551311E-12 -1.35003120E-12  0.00000000E+00
 1  1.23749999E-02  4.00099993E-01  0.00000000E+00  1.00000000E+00  1.77482390E+00  1.87933335E-14  0.00000000E+00  1.77482390E+00  1.00000000E+00  1.00000000E+00 -2.27551311E-12 -1.39621648E-12  0.00000000E+00
 1  1.26250004E-02  4.00099993E-01  0.00000000E+00  1.00000000E+00  1.77482390E+00  1.93649655E-14  0.00000000E+00  1.77482390E+00  1.00000000E+00  1.00000000E+00 -2.27551311E-12 -1.45838897E-12  0.00000000E+00
 1  1.28750000E-02  4.00099993E-01  0.00000000E+00  1.00000000E+00  1.77482390E+00  1.99365992E-14  0.00000000E+00  1.77482390E+00  1.00000000E+00  1.00000000E+00 -2.27640129E-12 -1.44773082E-12  0.00000000E+00
 1  1.31249996E-02  4.00099993E-01  0.00000000E+00  1.00000000E+00  1.77482390E+00  2.05082313E-14  0.00000000E+00  1.77482390E+00  1.00000000E+00  1.00000000E+00 -2.24797958E-12 -1.51345603E-12  0.00000000E+00
 1  1.33750001E-02  4.00099993E-01  0.00000000E+00  1.00000000E+00  1.77482390E+00  2.09982788E-14  0.00000000E+00  1.77482390E+00  1.00000000E+00  1.00000000E+00 -1.60174651E-12 -1.47467455E-12  0.00000000E+00
 1  1.36249997E-02  4.00099993E-01  0.00000000E+00  1.00000000E+00  1.77482390E+00  2.10803969E-14  0.00000000E+00  1.77482390E+00  1.00000000E+00  1.00000000E+00 -1.60174651E-12 -1.38631467E-12  0.00000000E+00
 1  1.38750002E-02  4.00099993E-01  0.00000000E+00  1.00000000E+00  1.77482390E+00  2.11625134E-14  0.00000000E+00  1.77482390E+00  1.00000000E+00  1.00000000E+00 -1.60174651E-12 -1.29795480E-12  0.00000000E+00
 1  1.41249998E-02  4.00099993E-01  0.00000000E+00  1.00000000E+00  1.77482390E+00  2.12446316E-14  0.00000000E+00  1.77482390E+00  1.00000000E+00  1.00000000E+00 -1.60174651E-12 -1.15275151E-12  0.00000000E+00
 1  1.43750003E-02  4.00099993E-01  0.00000000E+00  1.00000000E+00  1.77482390E+00  2.13267497E-14  0.00000000E+00  1.77482390E+00  1.00000000E+00  1.00000000E+00 -1.60174651E-12 -1.06439163E-12  0.00000000E+00
 1  1.46249998E-02  4.00099993E-01  0.00000000E+00  1.00000000E+00  1.77482390E+00  2.14088679E-14  0.00000000E+00  1.77482390E+00  1.00000000E+00  1.00000000E+00 -1.60174651E-12 -9.47610046E-13  0.00000000E+00
 1  1.48750003E-02  4.00099993E-01  0.00000000E+00  1.00000000E+00  1.77482390E+00  2.14909860E-14  0.00000000E+00  1.77482390E+00  1.00000000E+00  1.00000000E+00 -1.59997016E-12 -8.59250171E-13  0.00000000E+00
 1  1.51249999E-02  4.00099993E-01  0.00000000E+00  1.00000000E+00  1.77482390E+00  2.15731042E-14  0.00000000E+00  1.77482390E+00  1.00000000E+00  1.00000000E+00 -1.59997016E-12 -7.42468587E-13  0.00000000E+00
 1  1.53750004E-02  4.00099993E-01  0.00000000E+00  1.00000000E+00  1.77482390E+00  2.16552223E-14  0.00000000E+00  1.77482390E+00  1.00000000E+00  1.00000000E+00 -1.60085833E-12 -5.97265293E-13  0.00000000E+00
 1  1.56250000E-02  4.00099993E-01  0.00000000E+00  1.00000000E+00  1.77482390E+00  2.17373405E-14  0.00000000E+00  1.77482390E+00  1.00000000E+00  1.00000000E+00 -1.60085833E-12 -4.94694563E-13  0.00000000E+00
 1  1.58750005E-02  4.00099993E-01  0.00000000E+00  1.00000000E+00  1.77482390E+00  2.18194586E-14  0.00000000E+00  1.77482390E+00  1.00000000E+00  1.00000000E+00 -1.57243663E-12 -3.63702124E-13  0.00000000E+00
 1  1.61249992E-02  4.00099993E-01  0.00000000E+00  1.00000000E+00  1.77482390E+00  2.19015768E-14  0.00000000E+00  1.77482390E+00  1.00000000E+00  1.00000000E+00 -1.60085833E-12 -2.89553104E-13  0.00000000E+00
 1  1.63749997E-02  4.00099993E-01  0.00000000E+00  1.00000000E+00  1.77482390E+00  2.19836949E-14  0.00000000E+00  1.77482390E+00  1.00000000E+00  1.00000000E+00 -1.60085833E-12 -1.86982374E-13  0.00000000E+00
 1  1.66250002E-02  4.00099993E-01  0.00000000E+00  1.00000000E+00  1.77482390E+00  2.20658131E-14  0.00000000E+00  1.77482390E+00  1.00000000E+00  1.00000000E+00 -1.60085833E-12 -4.17790802E-14  0.00000000E+00
 1  1.68750007E-02  4.00099993E-01  0.00000000E+00  1.00000000E+00  1.77482390E+00  2.21479312E-14  0.00000000E+00  1.77482390E+00  1.00000000E+00  1.00000000E+00 -1.60130242E-12  6.07916495E-14  0.00000000E+00
 1  1.71249993E-02  4.00099993E-01  0.00000000E+00  1.00000000E+00  1.77482390E+00  2.22300494E-14  0.00000000E+00  1.77482390E+00  1.00000000E+00  1.00000000E+00 -1.60130242E-12  1.63362379E-13  0.00000000E+00
 1  1.73749998E-02  4.00099993E-01  0.00000000E+00  1.00000000E+00  1.77482390E+00  2.23121675E-14  0.00000000E+00  1.77482390E+00  1.00000000E+00  1.00000000E+00 -1.60130242E-12  2.73038536E-13  0.00000000E+00
 1  1.76250003E-02  4.00099993E-01  0.00000000E+00  1.00000000E+00  1.77482390E+00  2.23942857E-14  0.00000000E+00  1.77482390E+00  1.00000000E+00  1.00000000E+00 -1.60130242E-12  3.68503839E-13  0.00000000E+00
 1  1.78750008E-02  4.00099993E-01  0.00000000E+00  1.00000000E+00  1.77482390E+00  2.24764038E-14  0.00000000E+00  1.77482390E+00  1.00000000E+00  1.00000000E+00 -1.60085833E-12  4.85285423E-13  0.00000000E+00
 1  1.81249995E-02  4.00099993E-01  0.00000000E+00  1.00000000E+00  1.77482390E+00  2.25585220E-14  0.00000000E+00  1.77482390E+00  1.00000000E+00  1.00000000E+00 -1.60130242E-12  5.87856153E-13  0.00000000E+00
 1  1.83750000E-02  4.00099993E-01  0.00000000E+00  1.00000000E+00  1.77482390E+00  2.26406401E-14  0.00000000E+00  1.77482390E+00  1.00000000E+00  1.00000000E+00 -1.60130242E-12  7.04637737E-13  0.00000000E+00
 1  1.86250005E-02  4.00099993E-01  0.00000000E+00  1.00000000E+00  1.77482390E+00  2.27227583E-14  0.00000000E+00  1.77482390E+00  1.00000000E+00  1.00000000E+00 -1.57243663E-12  8.32077462E-13  0.00000000E+00
 1  1.88749991E-02  4.00099993E-01  0.00000000E+00  1.00000000E+00  1.77482390E+00  2.28048747E-14  0.00000000E+00  1.77482390E+00  1.00000000E+00  1.00000000E+00 -1.60085833E-12  9.38200906E-13  0.00000000E+00
 1  1.91249996E-02  4.00099993E-01  0.00000000E+00  1.00000000E+00  1.77482390E+00  2.28869929E-14  0.00000000E+00  1.77482390E+00  1.00000000E+00  1.00000000E+00 -1.60085833E-12  1.06919334E-12  0.00000000E+00
 1  1.93750001E-02  4.00099993E-01  0.00000000E+00  1.00000000E+00  1.77482390E+00  2.29691110E-14  0.00000000E+00  1.77482390E+00  1.00000000E+00  1.00000000E+00 -1.60085833E-12  1.16465865E-12  0.00000000E+00
 1  1.96250007E-02  4.00099993E-01  0.00000000E+00  1.00000000E+00  1.77482390E+00  2.30512292E-14  0.00000000E+00  1.77482390E+00  1.00000000E+00  1.00000000E+00 -1.60085833E-12  1.23880767E-12  0.00000000E+00
 1  1.98749993E-02  4.00099993E-01  0.00000000E+00  1.00000000E+00  1.77482390E+00  2.31333473E-14  0.00000000E+00  1.77482390E+00  1.00000000E+00  1.00000000E+00 -1.60085833E-12  1.37823780E-12  0.00000000E+00
 1  2.01249998E-02  4.00099993E-01  0.00000000E+00  1.00000000E+00  1.77482390E+00  2.31093322E-14  0.00000000E+00  1.77482390E+00  1.00000000E+00  1.00000000E+00 -6.21835916E-13  1.47523660E-12  0.00000000E+00
 1  2.03750003E-02  4.00099993E-01  0.00000000E+00  1.00000000E+00  1.77482390E+00  2.29791822E-14  0.00000000E+00  1.77482390E+00  1.00000000E+00  1.00000000E+00 -6.21835916E-13  1.59952607E-12  0.00000000E+00
 1  2.06250008E-02  4.00099993E-01  0.00000000E+00  1.00000000E+00  1.77482390E+00  2.28490322E-14  0.00000000E+00  1.77482390E+00  1.00000000E+00  1.00000000E+00 -6.21835916E-13  1.72381553E-12  0.00000000E+00
 1  2.08749995E-02  4.00099993E-01  0.00000000E+00  1.00000000E+00  1.77482390E+00  2.27188839E-14  0.00000000E+00  1.77482390E+00  1.00000000E+00  1.00000000E+00 -6.21835916E-13  1.84810500E-12  0.00000000E+00
 1  2.11250000E-02  4.00099993E-01  0.00000000E+00  1.00000000E+00  1.77482390E+00  2.25887339E-14  0.00000000E+00  1.77482390E+00  1.00000000E+00  1.00000000E+00 -6.21835916E-13  1.92976191E-12  0.00000000E+00
 1  2.13750005E-02  4.00099993E-01  0.00000000E+00  1.00000000E+00  1.77482390E+00  2.24585839E-14  0.00000000E+00  1.77482390E+00  1.00000000E+00  1.00000000E+00 -6.21835916E-13  2.02562966E-12  0.00000000E+00
 1  2.16249991E-02  4.00099993E-01  0.00000000E+00  1.00000000E+00  1.77482390E+00  2.23284356E-14  0.00000000E+00  1.77482390E+00  1.00000000E+00  1.00000000E+00 -6.21835916E-13  2.13570828E-12  0.00000000E+00
 1  2.18749996E-02  4.00099993E-01  0.00000000E+00  1.00000000E+00  1.77482390E+00  2.21982856E-14  0.00000000E+00  1.77482390E+00  1.00000000E+00  1.00000000E+00 -6.21835916E-13  2.24578689E-12  0.00000000E+00
 1  2.21250001E-02  4.00099993E-01  0.00000000E+00  1.00000000E+00  1.77482390E+00  2.20681356E-14  0.00000000E+00  1.77482390E+00  1.00000000E+00  1.00000000E+00 -6.21835916E-13  2.35586550E-12  0.00000000E+00
 1  2.23750006E-02  4.00099993E-01  0.00000000E+00  1.00000000E+00  1.77482390E+00  2.19379856E-14  0.00000000E+00  1.77482390E+00  1.00000000E+00  1.00000000E+00 -6.21835916E-13  2.45173326E-12  0.00000000E+00
 1  2.26249993E-02  4.00099993E-01  0.00000000E+00  1.00000000E+00  1.77482390E+00  2.18078373E-14  0.00000000E+00  1.77482390E+00  1.00000000E+00  1.00000000E+00 -6.21835916E-13  2.59023358E-12  0.00000000E+00
 1  2.28749998E-02  4.00099993E-01  0.00000000E+00  1.00000000E+00  1.77482390E+00  2.16776873E-14  0.00000000E+00  1.77482390E+00  1.00000000E+00  1.00000000E+00 -6.21835916E-13  2.70031220E-12  0.00000000E+00
 1  2.31250003E-02  4.00099993E-01  0.00000000E+00  1.00000000E+00  1.77482390E+00  2.15475373E-14  0.00000000E+00  1.77482390E+00  1.00000000E+00  1.00000000E+00 -6.21391827E-13  2.79617995E-12  0.00000000E+00
 1  2.33750008E-02  4.00099993E-01  0.00000000E+00  1.00000000E+00  1.77482390E+00  2.14173873E-14  0.00000000E+00  1.77482390E+00  1.00000000E+00  1.00000000E+00 -6.21835916E-13  2.90625857E-12  0.00000000E+00
 1  2.36249994E-02  4.00099993E-01  0.00000000E+00  1.00000000E+00  1.77482390E+00  2.12872390E-14  0.00000000E+00  1.77482390E+00  1.00000000E+00  1.00000000E+00 -6.21835916E-13  3.04475889E-12  0.00000000E+00
 1  2.38750000E-02  4.00099993E-01  0.00000000E+00  1.00000000E+00  1.77482390E+00  2.11570890E-14  0.00000000E+00  1.77482390E+00  1.00000000E+00  1.00000000E+00 -6.21835916E-13  3.12641579E-12  0.00000000E+00
 1  2.41250005E-02  4.00099993E-01  0.00000000E+00  1.00000000E+00  1.77482390E+00  2.10269390E-14  0.00000000E+00  1.77482390E+00  1.00000000E+00  1.00000000E+00 -6.21835916E-13  3.24359983E-12  0.00000000E+00
 1  2.43749991E-02  4.00099993E-01  0.00000000E+00  1.00000000E+00  1.77482390E+00  2.08967907E-14  0.00000000E+00  1.77482390E+00  1.00000000E+00  1.00000000E+00 -6.21835916E-13  3.35367845E-12  0.00000000E+00
 1  2.46249996E-02  4.00099993E-01  0.00000000E+00  1.00000000E+00  1.77482390E+00  2.07666407E-14  0.00000000E+00  1.77482390E+00  1.00000000E+00  1.00000000E+00 -6.21391827E-13  3.47086249E-12  0.00000000E+00
 1  2.48750001E-02  4.00099993E-01  0.00000000E+00  1.00000000E+00  1.77482390E+00  2.06364907E-14  0.00000000E+00  1.77482390E+00  1.00000000E+00  1.00000000E+00 -6.21835916E-13  3.58804653E-12  0.00000000E+00
 1  2.51250006E-02  4.00099993E-01  0.00000000E+00  1.00000000E+00  1.77482390E+00  2.05063407E-14  0.00000000E+00  1.77482390E+00  1.00000000E+00  1.00000000E+00 -6.21835916E-13  3.66970343E-12  0.00000000E+00
 1  2.53749993E-02  4.00099993E-01  0.00000000E+00  1.00000000E+00  1.77482390E+00  2.03761924E-14  0.00000000E+00  1.77482390E+00  1.00000000E+00  1.00000000E+00 -6.21835916E-13  3.80465104E-12  0.00000000E+00
 1  2.56249998E-02  4.00099993E-01  0.00000000E+00  1.00000000E+00  1.77482390E+00  2.02460424E-14  0.00000000E+00  1.77482390E+00  1.00000000E+00  1.00000000E+00 -6.21835916E-13  3.92894051E-12  0.00000000E+00
 1  2.58750003E-02  4.00099993E-01  0.00000000E+00  1.00000000E+00  1.77482390E+00  2.01158924E-14  0.00000000E+00  1.77482390E+00  1.00000000E+00  1.00000000E+00 -6.21835916E-13  4.03191369E-12  0.00000000E+00
 1  2.61250008E-02  4.00099993E-01  0.00000000E+00  1.00000000E+00  1.77482390E+00  1.99857424E-14  0.00000000E+00  1.77482390E+00  1.00000000E+00  1.00000000E+00 -6.21391827E-13  4.13311052E-12  0.00000000E+00
 1  2.63749994E-02  4.00099993E-01  0.00000000E+00  1.00000000E+00  1.77482390E+00  1.98555941E-14  0.00000000E+00  1.77482390E+00  1.00000000E+00  1.00000000E+00 -6.21835916E-13  4.22542556E-12  0.00000000E+00
 1  2.66249999E-02  4.00099993E-01  0.00000000E+00  1.00000000E+00  1.77482390E+00  1.97254441E-14  0.00000000E+00  1.77482390E+00  1.00000000E+00  1.00000000E+00 -6.21835916E-13  4.35959602E-12  0.00000000E+00
 1  2.68750004E-02  4.00099993E-01  0.00000000E+00  1.00000000E+00  1.77482390E+00  1.91492093E-14  0.00000000E+00  1.77482390E+00  1.00000000E+00  1.00000000E+00  2.09887663E-12  4.08970080E-12  0.00000000E+00
 1  2.71249991E-02  4.00099993E-01  0.00000000E+00  1.00000000E+00  1.77482390E+00  1.84837565E-14  0.00000000E+00  1.77482390E+00  1.00000000E+00  1.00000000E+00  2.07400763E-12  3.78799769E-12  0.00000000E+00
 1  2.73749996E-02  4.00099993E-01  0.00000000E+00  1.00000000E+00  1.77482390E+00  1.78183037E-14  0.00000000E+00  1.77482390E+00  1.00000000E+00  1.00000000E+00  2.07400763E-12  3.51471630E-12  0.00000000E+00
 1  2.76250001E-02  4.00099993E-01  0.00000000E+00  1.00000000E+00  1.77482390E+00  1.71528509E-14  0.00000000E+00  1.77482390E+00  1.00000000E+00  1.00000000E+00  2.07400763E-12  3.15616977E-12  0.00000000E+00
 1  2.78750006E-02  4.00099993E-01  0.00000000E+00  1.00000000E+00  1.77482390E+00  1.64873981E-14  0.00000000E+00  1.77482390E+00  1.00000000E+00  1.00000000E+00  2.07134310E-12  2.85446666E-12  0.00000000E+00
 1  2.81249993E-02  4.00099993E-01  0.00000000E+00  1.00000000E+00  1.77482390E+00  1.58219453E-14  0.00000000E+00  1.77482390E+00  1.00000000E+00  1.00000000E+00  2.07134310E-12  2.53855270E-12  0.00000000E+00
 1  2.83749998E-02  4.00099993E-01  0.00000000E+00  1.00000000E+00  1.77482390E+00  1.51564908E-14  0.00000000E+00  1.77482390E+00  1.00000000E+00  1.00000000E+00  2.07134310E-12  2.22263874E-12  0.00000000E+00
 1  2.86250003E-02  4.00099993E-01  0.00000000E+00  1.00000000E+00  1.77482390E+00  1.44910380E-14  0.00000000E+00  1.77482390E+00  1.00000000E+00  1.00000000E+00  2.07134310E-12  1.93514649E-12  0.00000000E+00
 1  2.88750008E-02  4.00099993E-01  0.00000000E+00  1.00000000E+00  1.77482390E+00  1.38255860E-14  0.00000000E+00  1.77482390E+00  1.00000000E+00  1.00000000E+00  2.07134310E-12  1.61923253E-12  0.00000000E+00
 1  2.91249994E-02  4.00099993E-01  0.00000000E+00  1.00000000E+00  1.77482390E+00  1.31601332E-14  0.00000000E+00  1.77482390E+00  1.00000000E+00  1.00000000E+00  2.07400763E-12  1.31752942E-12  0.00000000E+00
 1  2.93749999E-02  4.00099993E-01  0.00000000E+00  1.00000000E+00  1.77482390E+00  1.24946804E-14  0.00000000E+00  1.77482390E+00  1.00000000E+00  1.00000000E+00  2.07134310E-12  1.00161546E-12  0.00000000E+00
 1  2.96250004E-02  4.00099993E-01  0.00000000E+00  1.00000000E+00  1.77482390E+00  1.18292276E-14  0.00000000E+00  1.77482390E+00  1.00000000E+00  1.00000000E+00  2.07134310E-12  6.85701496E-13  0.00000000E+00
 1  2.98749991E-02  4.00099993E-01  0.00000000E+00  1.00000000E+00  1.77482390E+00  1.11637748E-14  0.00000000E+00  1.77482390E+00  1.00000000E+00  1.00000000E+00  2.07134310E-12  3.41365824E-13  0.00000000E+00
 1  3.01249996E-02  4.00099993E-01  0.00000000E+00  1.00000000E+00  1.77482390E+00  1.04983220E-14  0.00000000E+00  1.77482390E+00  1.00000000E+00  1.00000000E+00  2.07134310E-12  3.96627176E-14  0.00000000E+00
 1  3.03750001E-02  4.00099993E-01  0.00000000E+00  1.00000000E+00  1.77482390E+00  9.83286921E-15  0.00000000E+00  1.77482390E+00  1.00000000E+00  1.00000000E+00  2.07134310E-12 -2.76251244E-13  0.00000000E+00
 1  3.06250006E-02  4.00099993E-01  0.00000000E+00  1.00000000E+00  1.77482390E+00  9.16741641E-15  0.00000000E+00  1.77482390E+00  1.00000000E+00  1.00000000E+00  2.07134310E-12 -5.92165206E-13  0.00000000E+00
 1  3.08749992E-02  4.00099993E-01  0.00000000E+00  1.00000000E+00  1.77482390E+00  8.50196361E-15  0.00000000E+00  1.77482390E+00  1.00000000E+00  1.00000000E+00  2.07045492E-12 -9.00973740E-13  0.00000000E+00
 1  3.11249997E-02  4.00099993E-01  0.00000000E+00  1.00000000E+00  1.77482390E+00  7.83651081E-15  0.00000000E+00  1.77482390E+00  1.00000000E+00  1.00000000E+00  2.07134310E-12 -1.19557142E-12  0.00000000E+00
 1  3.13749984E-02  4.00099993E-01  0.00000000E+00  1.00000000E+00  1.77482390E+00  7.17105801E-15  0.00000000E+00  1.77482390E+00  1.00000000E+00  1.00000000E+00  2.07134310E-12 -1.49727453E-12  0.00000000E+00
 1  3.16249989E-02  4.00099993E-01  0.00000000E+00  1.00000000E+00  1.77482390E+00  6.50560521E-15  0.00000000E+00  1.77482390E+00  1.00000000E+00  1.00000000E+00  2.07134310E-12 -1.82029392E-12  0.00000000E+00
 1  3.18749994E-02  4.00099993E-01  0.00000000E+00  1.00000000E+00  1.77482390E+00  5.84015241E-15  0.00000000E+00  1.77482390E+00  1.00000000E+00  1.00000000E+00  2.07134310E-12 -2.12910245E-12  0.00000000E+00
 1  3.21249999E-02  4.00099993E-01  0.00000000E+00  1.00000000E+00  1.77482390E+00  5.17469919E-15  0.00000000E+00  1.77482390E+00  1.00000000E+00  1.00000000E+00  2.07134310E-12 -2.44501641E-12  0.00000000E+00
 1  3.23750004E-02  4.00099993E-01  0.00000000E+00  1.00000000E+00  1.77482390E+00  4.50924639E-15  0.00000000E+00  1.77482390E+00  1.00000000E+00  1.00000000E+00  2.07045492E-12 -2.75027223E-12  0.00000000E+00
 1  3.26250009E-02  4.00099993E-01  0.00000000E+00  1.00000000E+00  1.77482390E+00  3.84379359E-15  0.00000000E+00  1.77482390E+00  1.00000000E+00  1.00000000E+00  2.07045492E-12 -3.07506798E-12  0.00000000E+00
 1  3.28750014E-02  4.00099993E-01  0.00000000E+00  1.00000000E+00  1.77482390E+00  3.17834100E-15  0.00000000E+00  1.77482390E+00  1.00000000E+00  1.00000000E+00  2.07045492E-12 -3.38032380E-12  0.00000000E+00
 1  3.31249982E-02  4.00099993E-01  0.00000000E+00  1.00000000E+00  1.77482390E+00  2.51288820E-15  0.00000000E+00  1.77482390E+00  1.00000000E+00  1.00000000E+00  2.07400763E-12 -3.70156683E-12  0.00000000E+00
 1  3.33749987E-02  4.00099993E-01  0.00000000E+00  1.00000000E+00  1.77482390E+00  1.90834427E-15  0.00000000E+00  1.77482390E+00  1.00000000E+00  1.00000000E+00 -1.05238041E-12 -3.97828992E-12  0.00000000E+00
 1  3.36249992E-02  4.00099993E-01  0.00000000E+00  1.00000000E+00  1.77482390E+00  1.60834563E-15  0.00000000E+00  1.77482390E+00  1.00000000E+00  1.00000000E+00 -1.05238041E-12 -4.02175515E-12  0.00000000E+00
 1  3.38749997E-02  4.00099993E-01  0.00000000E+00  1.00000000E+00  1.77482390E+00  1.30834689E-15  0.00000000E+00  1.77482390E+00  1.00000000E+00  1.00000000E+00 -1.05193632E-12 -4.09364209E-12  0.00000000E+00
 1  3.41250002E-02  4.00099993E-01  0.00000000E+00  1.00000000E+00  1.77482390E+00  1.00834815E-15  0.00000000E+00  1.77482390E+00  1.00000000E+00  1.00000000E+00 -1.05238041E-12 -4.13710732E-12  0.00000000E+00
 1  3.43750007E-02  4.00099993E-01  0.00000000E+00  1.00000000E+00  1.77482390E+00  7.08349460E-16  0.00000000E+00  1.77482390E+00  1.00000000E+00  1.00000000E+00 -1.05238041E-12 -4.18057255E-12  0.00000000E+00
 1  3.46250013E-02  4.00099993E-01  0.00000000E+00  1.00000000E+00  1.77482390E+00  4.08350772E-16  0.00000000E+00  1.77482390E+00  1.00000000E+00  1.00000000E+00 -1.05238041E-12 -4.26667035E-12  0.00000000E+00
 1  3.48750018E-02  4.00099993E-01  0.00000000E+00  1.00000000E+00  1.77482390E+00  1.08352058E-16  0.00000000E+00  1.77482390E+00  1.00000000E+00  1.00000000E+00 -1.05238041E-12 -4.32434644E-12  0.00000000E+00