# CoordinateSystem = xByUzL
# Units = ISS
VARIABLES = "Found","X","Y","Z","Density","VelocityX","VelocityY","VelocityZ","VelocityMag","Pressure","Temperature","DensityGradientX","DensityGradientY","DensityGradientZ"
ZONE T="t = 7.00000000E-01",I=4000,SOLUTIONTIME=7.00000000E-01
 1  1.05009997E+00  1.25000006E-04  0.00000000E+00  1.84235287E+00  9.51446235E-01 -8.78759311E-05  0.00000000E+00  9.51446235E-01  2.43051910E+00  1.31924736E+00 -4.30597588E-02  6.22493744E-01  0.00000000E+00
 1  1.05009997E+00  3.75000003E-04  0.00000000E+00  1.84250844E+00  9.51792181E-01 -9.71787740E-05  0.00000000E+00  9.51792181E-01  2.43055463E+00  1.31915510E+00 -4.32639159E-02  6.22493744E-01  0.00000000E+00
 1  1.05009997E+00  6.24999986E-04  0.00000000E+00  1.84266412E+00  9.52138066E-01 -1.06481610E-04  0.00000000E+00  9.52138066E-01  2.43059015E+00  1.31906295E+00 -4.34680730E-02  6.22493744E-01  0.00000000E+00
 1  1.05009997E+00  8.75000027E-04  0.00000000E+00  1.84281969E+00  9.52484012E-01 -1.15784453E-04  0.00000000E+00  9.52484012E-01  2.43062544E+00  1.31897080E+00 -4.36722338E-02  6.22493744E-01  0.00000000E+00
 1  1.05009997E+00  1.12499995E-03  0.00000000E+00  1.84297538E+00  9.52829897E-01 -1.25087288E-04  0.00000000E+00  9.52829897E-01  2.43066096E+00  1.31887865E+00 -4.38763909E-02  6.22493744E-01  0.00000000E+00
 1  1.05009997E+00  1.37499999E-03  0.00000000E+00  1.84313095E+00  9.53175843E-01 -1.34390124E-04  0.00000000E+00  9.53175843E-01  2.43069625E+00  1.31878650E+00 -4.40805480E-02  6.22493744E-01  0.00000000E+00
 1  1.05009997E+00  1.62500003E-03  0.00000000E+00  1.84328663E+00  9.53521729E-01 -1.43692974E-04  0.00000000E+00  9.53521729E-01  2.43073177E+00  1.31869435E+00 -4.42847051E-02  6.22493744E-01  0.00000000E+00
 1  1.05009997E+00  1.87499996E-03  0.00000000E+00  1.84344220E+00  9.53867674E-01 -1.52995810E-04  0.00000000E+00  9.53867674E-01  2.43076706E+00  1.31860220E+00 -4.44888659E-02  6.22493744E-01  0.00000000E+00
 1  1.05009997E+00  2.12500012E-03  0.00000000E+00  1.84359789E+00  9.54213560E-01 -1.62298646E-04  0.00000000E+00  9.54213619E-01  2.43080235E+00  1.31851006E+00 -4.46930230E-02  6.22493744E-01  0.00000000E+00
 1  1.05009997E+00  2.37499992E-03  0.00000000E+00  1.84375346E+00  9.54559505E-01 -1.71601496E-04  0.00000000E+00  9.54559505E-01  2.43083763E+00  1.31841791E+00 -4.48971801E-02  6.22493744E-01  0.00000000E+00
 1  1.05009997E+00  2.62499996E-03  0.00000000E+00  1.84390914E+00  9.54905391E-01 -1.80904332E-04  0.00000000E+00  9.54905450E-01  2.43087292E+00  1.31832576E+00 -4.51013409E-02  6.22493744E-01  0.00000000E+00
 1  1.05009997E+00  2.87500001E-03  0.00000000E+00  1.84406471E+00  9.55251336E-01 -1.90207167E-04  0.00000000E+00  9.55251336E-01  2.43090796E+00  1.31823361E+00 -4.53054979E-02  6.22493744E-01  0.00000000E+00
 1  1.05009997E+00  3.12500005E-03  0.00000000E+00  1.84422040E+00  9.55597222E-01 -1.99510003E-04  0.00000000E+00  9.55597281E-01  2.43094325E+00  1.31814146E+00 -4.55096550E-02  6.22493744E-01  0.00000000E+00
 1  1.05009997E+00  3.37500009E-03  0.00000000E+00  1.84437597E+00  9.55943167E-01 -2.08812853E-04  0.00000000E+00  9.55943167E-01  2.43097830E+00  1.31804931E+00 -4.57138121E-02  6.22493744E-01  0.00000000E+00
 1  1.05009997E+00  3.62499990E-03  0.00000000E+00  1.84453154E+00  9.56289113E-01 -2.18115689E-04  0.00000000E+00  9.56289113E-01  2.43101358E+00  1.31795716E+00 -4.59179729E-02  6.22493744E-01  0.00000000E+00
 1  1.05009997E+00  3.87499994E-03  0.00000000E+00  1.84468722E+00  9.56634998E-01 -2.27418524E-04  0.00000000E+00  9.56634998E-01  2.43104863E+00  1.31786489E+00 -4.61221300E-02  6.22493744E-01  0.00000000E+00
 1  1.05009997E+00  4.12499998E-03  0.00000000E+00  1.84484279E+00  9.56980944E-01 -2.36721360E-04  0.00000000E+00  9.56980944E-01  2.43108368E+00  1.31777275E+00 -4.63262871E-02  6.22493744E-01  0.00000000E+00
 1  1.05009997E+00  4.37500002E-03  0.00000000E+00  1.84499848E+00  9.57326829E-01 -2.46024196E-04  0.00000000E+00  9.57326889E-01  2.43111873E+00  1.31768060E+00 -4.65304479E-02  6.22493744E-01  0.00000000E+00
 1  1.05009997E+00  4.62500006E-03  0.00000000E+00  1.84515405E+00  9.57672775E-01 -2.55327031E-04  0.00000000E+00  9.57672775E-01  2.43115377E+00  1.31758845E+00 -4.67346050E-02  6.22493744E-01  0.00000000E+00
 1  1.05009997E+00  4.87500010E-03  0.00000000E+00  1.84530973E+00  9.58018661E-01 -2.64629896E-04  0.00000000E+00  9.58018720E-01  2.43118882E+00  1.31749630E+00 -4.69387621E-02  6.22493744E-01  0.00000000E+00
 1  1.05009997E+00  5.12500014E-03  0.00000000E+00  1.84546530E+00  9.58364606E-01 -2.73932732E-04  0.00000000E+00  9.58364606E-01  2.43122363E+00  1.31740415E+00 -4.71429192E-02  6.22493744E-01  0.00000000E+00
 1  1.05009997E+00  5.37500018E-03  0.00000000E+00  1.84562099E+00  9.58710492E-01 -2.83235568E-04  0.00000000E+00  9.58710551E-01  2.43125868E+00  1.31731200E+00 -4.73470800E-02  6.22493744E-01  0.00000000E+00
 1  1.05009997E+00  5.62500022E-03  0.00000000E+00  1.84577656E+00  9.59056437E-01 -2.92538403E-04  0.00000000E+00  9.59056497E-01  2.43129349E+00  1.31721985E+00 -4.75512370E-02  6.22493744E-01  0.00000000E+00
 1  1.05009997E+00  5.87499980E-03  0.00000000E+00  1.84593225E+00  9.59402323E-01 -3.01841239E-04  0.00000000E+00  9.59402382E-01  2.43132854E+00  1.31712770E+00 -4.77553941E-02  6.22493744E-01  0.00000000E+00
 1  1.05009997E+00  6.12499984E-03  0.00000000E+00  1.84608781E+00  9.59748268E-01 -3.11144075E-04  0.00000000E+00  9.59748328E-01  2.43136334E+00  1.31703556E+00 -4.79595549E-02  6.22493744E-01  0.00000000E+00
 1  1.05009997E+00  6.37499988E-03  0.00000000E+00  1.84624350E+00  9.60094154E-01 -3.20446910E-04  0.00000000E+00  9.60094213E-01  2.43139815E+00  1.31694341E+00 -4.81637120E-02  6.22493744E-01  0.00000000E+00
 1  1.05009997E+00  6.62499992E-03  0.00000000E+00  1.84639907E+00  9.60440099E-01 -3.29749746E-04  0.00000000E+00  9.60440159E-01  2.43143296E+00  1.31685126E+00 -4.83678691E-02  6.22493744E-01  0.00000000E+00
 1  1.05009997E+00  6.87499996E-03  0.00000000E+00  1.84655464E+00  9.60785985E-01 -3.39052611E-04  0.00000000E+00  9.60786045E-01  2.43146753E+00  1.31675911E+00 -4.85720262E-02  6.22493744E-01  0.00000000E+00
 1  1.05009997E+00  7.12500000E-03  0.00000000E+00  1.84671032E+00  9.61131930E-01 -3.48355446E-04  0.00000000E+00  9.61131990E-01  2.43150234E+00  1.31666696E+00 -4.87761870E-02  6.22493744E-01  0.00000000E+00
 1  1.05009997E+00  7.37500004E-03  0.00000000E+00  1.84686589E+00  9.61477876E-01 -3.57658282E-04  0.00000000E+00  9.61477935E-01  2.43153715E+00  1.31657481E+00 -4.89803441E-02  6.22493744E-01  0.00000000E+00
 1  1.05009997E+00  7.62500009E-03  0.00000000E+00  1.84702158E+00  9.61823761E-01 -3.66961118E-04  0.00000000E+00  9.61823821E-01  2.43157172E+00  1.31648254E+00 -4.91845012E-02  6.22493744E-01  0.00000000E+00
 1  1.05009997E+00  7.87500013E-03  0.00000000E+00  1.84717715E+00  9.62169707E-01 -3.76263954E-04  0.00000000E+00  9.62169766E-01  2.43160629E+00  1.31639040E+00 -4.93886620E-02  6.22493744E-01  0.00000000E+00
 1  1.05009997E+00  8.12499970E-03  0.00000000E+00  1.84733284E+00  9.62515593E-01 -3.85566789E-04  0.00000000E+00  9.62515652E-01  2.43164110E+00  1.31629825E+00 -4.95928191E-02  6.22493744E-01  0.00000000E+00
 1  1.05009997E+00  8.37500021E-03  0.00000000E+00  1.84748840E+00  9.62861538E-01 -3.94869625E-04  0.00000000E+00  9.62861598E-01  2.43167567E+00  1.31620610E+00 -4.97969761E-02  6.22493744E-01  0.00000000E+00
 1  1.05009997E+00  8.62499978E-03  0.00000000E+00  1.84764409E+00  9.63207424E-01 -4.04172461E-04  0.00000000E+00  9.63207543E-01  2.43171024E+00  1.31611395E+00 -5.00011332E-02  6.22493744E-01  0.00000000E+00
 1  1.05009997E+00  8.87500029E-03  0.00000000E+00  1.84779966E+00  9.63553369E-01 -4.13475325E-04  0.00000000E+00  9.63553429E-01  2.43174458E+00  1.31602180E+00 -5.02052940E-02  6.22493744E-01  0.00000000E+00
 1  1.05009997E+00  9.12499987E-03  0.00000000E+00  1.84795535E+00  9.63899255E-01 -4.22778161E-04  0.00000000E+00  9.63899374E-01  2.43177915E+00  1.31592965E+00 -5.04094511E-02  6.22493744E-01  0.00000000E+00
 1  1.05009997E+00  9.37500037E-03  0.00000000E+00  1.84811091E+00  9.64245200E-01 -4.32080997E-04  0.00000000E+00  9.64245260E-01  2.43181372E+00  1.31583750E+00 -5.06136082E-02  6.22493744E-01  0.00000000E+00
 1  1.05009997E+00  9.62499995E-03  0.00000000E+00  1.84826660E+00  9.64591086E-01 -4.41383832E-04  0.00000000E+00  9.64591205E-01  2.43184805E+00  1.31574535E+00 -5.08177690E-02  6.22493744E-01  0.00000000E+00
 1  1.05009997E+00  9.87500045E-03  0.00000000E+00  1.84842217E+00  9.64937031E-01 -4.50686668E-04  0.00000000E+00  9.64937150E-01  2.43188262E+00  1.31565320E+00 -5.10219261E-02  6.22493744E-01  0.00000000E+00
 1  1.05009997E+00  1.01250000E-02  0.00000000E+00  1.84853888E+00  9.65147436E-01 -4.68254962E-04  0.00000000E+00  9.65147555E-01  2.43195581E+00  1.31560969E+00 -5.14584184E-02  3.11502516E-01  0.00000000E+00
 1  1.05009997E+00  1.03749996E-02  0.00000000E+00  1.84861684E+00  9.65222359E-01 -4.94088687E-04  0.00000000E+00  9.65222478E-01  2.43206763E+00  1.31561482E+00 -5.21272495E-02  3.11502516E-01  0.00000000E+00
 1  1.05009997E+00  1.06250001E-02  0.00000000E+00  1.84869468E+00  9.65297282E-01 -5.19922411E-04  0.00000000E+00  9.65297461E-01  2.43217969E+00  1.31562006E+00 -5.27960807E-02  3.11502516E-01  0.00000000E+00
 1  1.05009997E+00  1.08749997E-02  0.00000000E+00  1.84877253E+00  9.65372264E-01 -5.45756135E-04  0.00000000E+00  9.65372384E-01  2.43229175E+00  1.31562519E+00 -5.34649119E-02  3.11502516E-01  0.00000000E+00
 1  1.05009997E+00  1.11250002E-02  0.00000000E+00  1.84885049E+00  9.65447187E-01 -5.71589917E-04  0.00000000E+00  9.65447366E-01  2.43240380E+00  1.31563032E+00 -5.41337430E-02  3.11502516E-01  0.00000000E+00
 1  1.05009997E+00  1.13749998E-02  0.00000000E+00  1.84892833E+00  9.65522110E-01 -5.97423641E-04  0.00000000E+00  9.65522289E-01  2.43251562E+00  1.31563544E+00 -5.48025705E-02  3.11502516E-01  0.00000000E+00
 1  1.05009997E+00  1.16250003E-02  0.00000000E+00  1.84900618E+00  9.65597034E-01 -6.23257365E-04  0.00000000E+00  9.65597212E-01  2.43262768E+00  1.31564069E+00 -5.54714017E-02  3.11502516E-01  0.00000000E+00
 1  1.05009997E+00  1.18749999E-02  0.00000000E+00  1.84908402E+00  9.65671957E-01 -6.49091089E-04  0.00000000E+00  9.65672195E-01  2.43273973E+00  1.31564581E+00 -5.61402328E-02  3.11502516E-01  0.00000000E+00
 1  1.05009997E+00  1.21250004E-02  0.00000000E+00  1.84916198E+00  9.65746880E-01 -6.74924813E-04  0.00000000E+00  9.65747118E-01  2.43285179E+00  1.31565094E+00 -5.68090640E-02  3.11502516E-01  0.00000000E+00
 1  1.05009997E+00  1.23749999E-02  0.00000000E+00  1.84923983E+00  9.65821803E-01 -7.00758537E-04  0.00000000E+00  9.65822101E-01  2.43296361E+00  1.31565619E+00 -5.74778952E-02  3.11502516E-01  0.00000000E+00
 1  1.05009997E+00  1.26250004E-02  0.00000000E+00  1.84931767E+00  9.65896785E-01 -7.26592320E-04  0.00000000E+00  9.65897024E-01  2.43307567E+00  1.31566131E+00 -5.81467226E-02  3.11502516E-01  0.00000000E+00
 1  1.05009997E+00  1.28750000E-02  0.00000000E+00  1.84939551E+00  9.65971708E-01 -7.52426044E-04  0.00000000E+00  9.65972006E-01  2.43318772E+00  1.31566644E+00 -5.88155538E-02  3.11502516E-01  0.00000000E+00
 1  1.05009997E+00  1.31249996E-02  0.00000000E+00  1.84947348E+00  9.66046631E-01 -7.78259768E-04  0.00000000E+00  9.66046929E-01  2.43329978E+00  1.31567156E+00 -5.94843850E-02  3.11502516E-01  0.00000000E+00
 1  1.05009997E+00  1.33750001E-02  0.00000000E+00  1.84955132E+00  9.66121554E-01 -8.04093492E-04  0.00000000E+00  9.66121912E-01  2.43341160E+00  1.31567681E+00 -6.01532161E-02  3.11502516E-01  0.00000000E+00
 1  1.05009997E+00  1.36249997E-02  0.00000000E+00  1.84962916E+00  9.66196477E-01 -8.29927216E-04  0.00000000E+00  9.66196835E-01  2.43352365E+00  1.31568193E+00 -6.08220473E-02  3.11502516E-01  0.00000000E+00
 1  1.05009997E+00  1.38750002E-02  0.00000000E+00  1.84970701E+00  9.66271400E-01 -8.55760940E-04  0.00000000E+00  9.66271818E-01  2.43363571E+00  1.31568706E+00 -6.14908747E-02  3.11502516E-01  0.00000000E+00
 1  1.05009997E+00  1.41249998E-02  0.00000000E+00  1.84978497E+00  9.66346323E-01 -8.81594722E-04  0.00000000E+00  9.66346741E-01  2.43374777E+00  1.31569231E+00 -6.21597059E-02  3.11502516E-01  0.00000000E+00
 1  1.05009997E+00  1.43750003E-02  0.00000000E+00  1.84986281E+00  9.66421306E-01 -9.07428446E-04  0.00000000E+00  9.66421723E-01  2.43385983E+00  1.31569743E+00 -6.28285408E-02  3.11502516E-01  0.00000000E+00
 1  1.05009997E+00  1.46249998E-02  0.00000000E+00  1.84994066E+00  9.66496229E-01 -9.33262170E-04  0.00000000E+00  9.66496646E-01  2.43397164E+00  1.31570256E+00 -6.34973645E-02  3.11502516E-01  0.00000000E+00
 1  1.05009997E+00  1.48750003E-02  0.00000000E+00  1.85001862E+00  9.66571152E-01 -9.59095894E-04  0.00000000E+00  9.66571629E-01  2.43408370E+00  1.31570768E+00 -6.41661957E-02  3.11502516E-01  0.00000000E+00
 1  1.05009997E+00  1.51249999E-02  0.00000000E+00  1.85009646E+00  9.66646075E-01 -9.84929618E-04  0.00000000E+00  9.66646552E-01  2.43419576E+00  1.31571293E+00 -6.48350269E-02  3.11502516E-01  0.00000000E+00
 1  1.05009997E+00  1.53750004E-02  0.00000000E+00  1.85017431E+00  9.66720998E-01 -1.01076334E-03  0.00000000E+00  9.66721535E-01  2.43430781E+00  1.31571805E+00 -6.55038580E-02  3.11502516E-01  0.00000000E+00
 1  1.05009997E+00  1.56250000E-02  0.00000000E+00  1.85025215E+00  9.66795921E-01 -1.03659707E-03  0.00000000E+00  9.66796517E-01  2.43441987E+00  1.31572318E+00 -6.61726892E-02  3.11502516E-01  0.00000000E+00
 1  1.05009997E+00  1.58750005E-02  0.00000000E+00  1.85033011E+00  9.66870844E-01 -1.06243079E-03  0.00000000E+00  9.66871440E-01  2.43453169E+00  1.31572843E+00 -6.68415204E-02  3.11502516E-01  0.00000000E+00
 1  1.05009997E+00  1.61249992E-02  0.00000000E+00  1.85040796E+00  9.66945827E-01 -1.08826451E-03  0.00000000E+00  9.66946423E-01  2.43464375E+00  1.31573355E+00 -6.75103515E-02  3.11502516E-01  0.00000000E+00
 1  1.05009997E+00  1.63749997E-02  0.00000000E+00  1.85048580E+00  9.67020750E-01 -1.11409836E-03  0.00000000E+00  9.67021346E-01  2.43475580E+00  1.31573868E+00 -6.81791827E-02  3.11502516E-01  0.00000000E+00
 1  1.05009997E+00  1.66250002E-02  0.00000000E+00  1.85056365E+00  9.67095673E-01 -1.13993208E-03  0.00000000E+00  9.67096329E-01  2.43486786E+00  1.31574392E+00 -6.88480139E-02  3.11502516E-01  0.00000000E+00
 1  1.05009997E+00  1.68750007E-02  0.00000000E+00  1.85064161E+00  9.67170596E-01 -1.16576580E-03  0.00000000E+00  9.67171311E-01  2.43497992E+00  1.31574905E+00 -6.95168450E-02  3.11502516E-01  0.00000000E+00
 1  1.05009997E+00  1.71249993E-02  0.00000000E+00  1.85071945E+00  9.67245519E-01 -1.19159953E-03  0.00000000E+00  9.67246234E-01  2.43509197E+00  1.31575418E+00 -7.01856762E-02  3.11502516E-01  0.00000000E+00
 1  1.05009997E+00  1.73749998E-02  0.00000000E+00  1.85079730E+00  9.67320442E-01 -1.21743325E-03  0.00000000E+00  9.67321217E-01  2.43520379E+00  1.31575930E+00 -7.08544999E-02  3.11502516E-01  0.00000000E+00
 1  1.05009997E+00  1.76250003E-02  0.00000000E+00  1.85087514E+00  9.67395365E-01 -1.24326698E-03  0.00000000E+00  9.67396200E-01  2.43531585E+00  1.31576455E+00 -7.15233311E-02  3.11502516E-01  0.00000000E+00
 1  1.05009997E+00  1.78750008E-02  0.00000000E+00  1.85095310E+00  9.67470348E-01 -1.26910070E-03  0.00000000E+00  9.67471123E-01  2.43542790E+00  1.31576967E+00 -7.21921623E-02  3.11502516E-01  0.00000000E+00
 1  1.05009997E+00  1.81249995E-02  0.00000000E+00  1.85103095E+00  9.67545271E-01 -1.29493442E-03  0.00000000E+00  9.67546105E-01  2.43553996E+00  1.31577480E+00 -7.28609934E-02  3.11502516E-01  0.00000000E+00
 1  1.05009997E+00  1.83750000E-02  0.00000000E+00  1.85110879E+00  9.67620194E-01 -1.32076815E-03  0.00000000E+00  9.67621088E-01  2.43565202E+00  1.31578004E+00 -7.35298246E-02  3.11502516E-01  0.00000000E+00
 1  1.05009997E+00  1.86250005E-02  0.00000000E+00  1.85118675E+00  9.67695117E-01 -1.34660187E-03  0.00000000E+00  9.67696071E-01  2.43576407E+00  1.31578517E+00 -7.41986558E-02  3.11502516E-01  0.00000000E+00
 1  1.05009997E+00  1.88749991E-02  0.00000000E+00  1.85126460E+00  9.67770040E-01 -1.37243560E-03  0.00000000E+00  9.67770994E-01  2.43587589E+00  1.31579030E+00 -7.48674870E-02  3.11502516E-01  0.00000000E+00
 1  1.05009997E+00  1.91249996E-02  0.00000000E+00  1.85134244E+00  9.67844963E-01 -1.39826932E-03  0.00000000E+00  9.67845976E-01  2.43598795E+00  1.31579542E+00 -7.55363181E-02  3.11502516E-01  0.00000000E+00
 1  1.05009997E+00  1.93750001E-02  0.00000000E+00  1.85142028E+00  9.67919886E-01 -1.42410316E-03  0.00000000E+00  9.67920959E-01  2.43610001E+00  1.31580067E+00 -7.62051493E-02  3.11502516E-01  0.00000000E+00
 1  1.05009997E+00  1.96250007E-02  0.00000000E+00  1.85149825E+00  9.67994869E-01 -1.44993688E-03  0.00000000E+00  9.67995942E-01  2.43621206E+00  1.31580579E+00 -7.68739805E-02  3.11502516E-01  0.00000000E+00
 1  1.05009997E+00  1.98749993E-02  0.00000000E+00  1.85157609E+00  9.68069792E-01 -1.47577061E-03  0.00000000E+00  9.68070924E-01  2.43632412E+00  1.31581092E+00 -7.75428042E-02  3.11502516E-01  0.00000000E+00
 1  1.05009997E+00  2.01249998E-02  0.00000000E+00  1.85164452E+00  9.68055546E-01 -1.51227415E-03  0.00000000E+00  9.68056738E-01  2.43646550E+00  1.31583869E+00 -7.83310905E-02  2.36130074E-01  0.00000000E+00
 1  1.05009997E+00  2.03750003E-02  0.00000000E+00  1.85170352E+00  9.67952192E-01 -1.55944761E-03  0.00000000E+00  9.67953444E-01  2.43663621E+00  1.31588900E+00 -7.92388320E-02  2.36130074E-01  0.00000000E+00
 1  1.05009997E+00  2.06250008E-02  0.00000000E+00  1.85176265E+00  9.67848837E-01 -1.60662096E-03  0.00000000E+00  9.67850149E-01  2.43680716E+00  1.31593919E+00 -8.01465660E-02  2.36130074E-01  0.00000000E+00
 1  1.05009997E+00  2.08749995E-02  0.00000000E+00  1.85182166E+00  9.67745423E-01 -1.65379443E-03  0.00000000E+00  9.67746854E-01  2.43697786E+00  1.31598949E+00 -8.10543075E-02  2.36130074E-01  0.00000000E+00
 1  1.05009997E+00  2.11250000E-02  0.00000000E+00  1.85188067E+00  9.67642069E-01 -1.70096778E-03  0.00000000E+00  9.67643559E-01  2.43714857E+00  1.31603980E+00 -8.19620490E-02  2.36130074E-01  0.00000000E+00
 1  1.05009997E+00  2.13750005E-02  0.00000000E+00  1.85193968E+00  9.67538714E-01 -1.74814125E-03  0.00000000E+00  9.67540264E-01  2.43731952E+00  1.31609011E+00 -8.28697830E-02  2.36130074E-01  0.00000000E+00
 1  1.05009997E+00  2.16249991E-02  0.00000000E+00  1.85199869E+00  9.67435300E-01 -1.79531460E-03  0.00000000E+00  9.67436969E-01  2.43749022E+00  1.31614029E+00 -8.37775245E-02  2.36130074E-01  0.00000000E+00
 1  1.05009997E+00  2.18749996E-02  0.00000000E+00  1.85205781E+00  9.67331946E-01 -1.84248807E-03  0.00000000E+00  9.67333734E-01  2.43766093E+00  1.31619060E+00 -8.46852586E-02  2.36130074E-01  0.00000000E+00
 1  1.05009997E+00  2.21250001E-02  0.00000000E+00  1.85211682E+00  9.67228591E-01 -1.88966154E-03  0.00000000E+00  9.67230439E-01  2.43783188E+00  1.31624091E+00 -8.55930001E-02  2.36130074E-01  0.00000000E+00
 1  1.05009997E+00  2.23750006E-02  0.00000000E+00  1.85217583E+00  9.67125237E-01 -1.93683489E-03  0.00000000E+00  9.67127144E-01  2.43800259E+00  1.31629121E+00 -8.65007341E-02  2.36130074E-01  0.00000000E+00
 1  1.05009997E+00  2.26249993E-02  0.00000000E+00  1.85223484E+00  9.67021823E-01 -1.98400836E-03  0.00000000E+00  9.67023909E-01  2.43817353E+00  1.31634140E+00 -8.74084756E-02  2.36130074E-01  0.00000000E+00
 1  1.05009997E+00  2.28749998E-02  0.00000000E+00  1.85229385E+00  9.66918468E-01 -2.03118171E-03  0.00000000E+00  9.66920614E-01  2.43834424E+00  1.31639171E+00 -8.83162171E-02  2.36130074E-01  0.00000000E+00
 1  1.05009997E+00  2.31250003E-02  0.00000000E+00  1.85235298E+00  9.66815114E-01 -2.07835506E-03  0.00000000E+00  9.66817319E-01  2.43851519E+00  1.31644201E+00 -8.92239511E-02  2.36130074E-01  0.00000000E+00
 1  1.05009997E+00  2.33750008E-02  0.00000000E+00  1.85241199E+00  9.66711760E-01 -2.12552864E-03  0.00000000E+00  9.66714084E-01  2.43868589E+00  1.31649220E+00 -9.01316926E-02  2.36130074E-01  0.00000000E+00
 1  1.05009997E+00  2.36249994E-02  0.00000000E+00  1.85247099E+00  9.66608346E-01 -2.17270199E-03  0.00000000E+00  9.66610789E-01  2.43885684E+00  1.31654251E+00 -9.10394266E-02  2.36130074E-01  0.00000000E+00
 1  1.05009997E+00  2.38750000E-02  0.00000000E+00  1.85253000E+00  9.66504991E-01 -2.21987534E-03  0.00000000E+00  9.66507554E-01  2.43902779E+00  1.31659281E+00 -9.19471681E-02  2.36130074E-01  0.00000000E+00
 1  1.05009997E+00  2.41250005E-02  0.00000000E+00  1.85258901E+00  9.66401637E-01 -2.26704893E-03  0.00000000E+00  9.66404259E-01  2.43919849E+00  1.31664312E+00 -9.28549096E-02  2.36130074E-01  0.00000000E+00
 1  1.05009997E+00  2.43749991E-02  0.00000000E+00  1.85264814E+00  9.66298223E-01 -2.31422228E-03  0.00000000E+00  9.66301024E-01  2.43936944E+00  1.31669331E+00 -9.37626436E-02  2.36130074E-01  0.00000000E+00
 1  1.05009997E+00  2.46249996E-02  0.00000000E+00  1.85270715E+00  9.66194868E-01 -2.36139563E-03  0.00000000E+00  9.66197789E-01  2.43954039E+00  1.31674361E+00 -9.46703851E-02  2.36130074E-01  0.00000000E+00
 1  1.05009997E+00  2.48750001E-02  0.00000000E+00  1.85276616E+00  9.66091514E-01 -2.40856898E-03  0.00000000E+00  9.66094494E-01  2.43971109E+00  1.31679392E+00 -9.55781192E-02  2.36130074E-01  0.00000000E+00
 1  1.05009997E+00  2.51250006E-02  0.00000000E+00  1.85282516E+00  9.65988159E-01 -2.45574256E-03  0.00000000E+00  9.65991259E-01  2.43988204E+00  1.31684422E+00 -9.64858606E-02  2.36130074E-01  0.00000000E+00
 1  1.05009997E+00  2.53749993E-02  0.00000000E+00  1.85288417E+00  9.65884745E-01 -2.50291592E-03  0.00000000E+00  9.65888023E-01  2.44005299E+00  1.31689441E+00 -9.73935947E-02  2.36130074E-01  0.00000000E+00
 1  1.05009997E+00  2.56249998E-02  0.00000000E+00  1.85294330E+00  9.65781391E-01 -2.55008927E-03  0.00000000E+00  9.65784788E-01  2.44022393E+00  1.31694472E+00 -9.83013362E-02  2.36130074E-01  0.00000000E+00
 1  1.05009997E+00  2.58750003E-02  0.00000000E+00  1.85300231E+00  9.65678036E-01 -2.59726285E-03  0.00000000E+00  9.65681493E-01  2.44039464E+00  1.31699502E+00 -9.92090777E-02  2.36130074E-01  0.00000000E+00
 1  1.05009997E+00  2.61250008E-02  0.00000000E+00  1.85306132E+00  9.65574682E-01 -2.64443620E-03  0.00000000E+00  9.65578258E-01  2.44056559E+00  1.31704533E+00 -1.00116812E-01  2.36130074E-01  0.00000000E+00
 1  1.05009997E+00  2.63749994E-02  0.00000000E+00  1.85312033E+00  9.65471268E-01 -2.69160955E-03  0.00000000E+00  9.65475023E-01  2.44073653E+00  1.31709552E+00 -1.01024553E-01  2.36130074E-01  0.00000000E+00
 1  1.05009997E+00  2.66249999E-02  0.00000000E+00  1.85317934E+00  9.65367913E-01 -2.73878290E-03  0.00000000E+00  9.65371788E-01  2.44090748E+00  1.31714582E+00 -1.01932287E-01  2.36130074E-01  0.00000000E+00
 1  1.05009997E+00  2.68750004E-02  0.00000000E+00  1.85323846E+00  9.65264559E-01 -2.78595649E-03  0.00000000E+00  9.65268552E-01  2.44107842E+00  1.31719613E+00 -1.02840029E-01  2.36130074E-01  0.00000000E+00
 1  1.05009997E+00  2.71249991E-02  0.00000000E+00  1.85329747E+00  9.65161204E-01 -2.83312984E-03  0.00000000E+00  9.65165317E-01  2.44124937E+00  1.31724644E+00 -1.03747770E-01  2.36130074E-01  0.00000000E+00
 1  1.05009997E+00  2.73749996E-02  0.00000000E+00  1.85335648E+00  9.65057790E-01 -2.88030319E-03  0.00000000E+00  9.65062082E-01  2.44142032E+00  1.31729662E+00 -1.04655504E-01  2.36130074E-01  0.00000000E+00
 1  1.05009997E+00  2.76250001E-02  0.00000000E+00  1.85341549E+00  9.64954436E-01 -2.92747677E-03  0.00000000E+00  9.64958847E-01  2.44159126E+00  1.31734693E+00 -1.05563246E-01  2.36130074E-01  0.00000000E+00
 1  1.05009997E+00  2.78750006E-02  0.00000000E+00  1.85347450E+00  9.64851081E-01 -2.97465012E-03  0.00000000E+00  9.64855671E-01  2.44176221E+00  1.31739724E+00 -1.06470980E-01  2.36130074E-01  0.00000000E+00
 1  1.05009997E+00  2.81249993E-02  0.00000000E+00  1.85353363E+00  9.64747667E-01 -3.02182348E-03  0.00000000E+00  9.64752436E-01  2.44193316E+00  1.31744754E+00 -1.07378721E-01  2.36130074E-01  0.00000000E+00
 1  1.05009997E+00  2.83749998E-02  0.00000000E+00  1.85359263E+00  9.64644313E-01 -3.06899683E-03  0.00000000E+00  9.64649200E-01  2.44210410E+00  1.31749773E+00 -1.08286463E-01  2.36130074E-01  0.00000000E+00
 1  1.05009997E+00  2.86250003E-02  0.00000000E+00  1.85365164E+00  9.64540958E-01 -3.11617041E-03  0.00000000E+00  9.64545965E-01  2.44227505E+00  1.31754804E+00 -1.09194197E-01  2.36130074E-01  0.00000000E+00
 1  1.05009997E+00  2.88750008E-02  0.00000000E+00  1.85371065E+00  9.64437604E-01 -3.16334376E-03  0.00000000E+00  9.64442790E-01  2.44244599E+00  1.31759834E+00 -1.10101938E-01  2.36130074E-01  0.00000000E+00
 1  1.05009997E+00  2.91249994E-02  0.00000000E+00  1.85376966E+00  9.64334190E-01 -3.21051711E-03  0.00000000E+00  9.64339554E-01  2.44261694E+00  1.31764853E+00 -1.11009672E-01  2.36130074E-01  0.00000000E+00
 1  1.05009997E+00  2.93749999E-02  0.00000000E+00  1.85382879E+00  9.64230835E-01 -3.25769070E-03  0.00000000E+00  9.64236319E-01  2.44278812E+00  1.31769884E+00 -1.11917414E-01  2.36130074E-01  0.00000000E+00
 1  1.05009997E+00  2.96250004E-02  0.00000000E+00  1.85388780E+00  9.64127481E-01 -3.30486405E-03  0.00000000E+00  9.64133143E-01  2.44295907E+00  1.31774914E+00 -1.12825148E-01  2.36130074E-01  0.00000000E+00
 1  1.05009997E+00  2.98749991E-02  0.00000000E+00  1.85394681E+00  9.64024127E-01 -3.35203740E-03  0.00000000E+00  9.64029908E-01  2.44313002E+00  1.31779945E+00 -1.13732889E-01  2.36130074E-01  0.00000000E+00
 1  1.05009997E+00  3.01249996E-02  0.00000000E+00  1.85402894E+00  9.63972211E-01 -3.40711931E-03  0.00000000E+00  9.63978231E-01  2.44331479E+00  1.31784070E+00 -1.14637665E-01  4.20771748E-01  0.00000000E+00
 1  1.05009997E+00  3.03750001E-02  0.00000000E+00  1.85413408E+00  9.63971794E-01 -3.47010931E-03  0.00000000E+00  9.63978052E-01  2.44351339E+00  1.31787300E+00 -1.15539484E-01  4.20771748E-01  0.00000000E+00
 1  1.05009997E+00  3.06250006E-02  0.00000000E+00  1.85423934E+00  9.63971376E-01 -3.53309955E-03  0.00000000E+00  9.63977814E-01  2.44371176E+00  1.31790531E+00 -1.16441302E-01  4.20771748E-01  0.00000000E+00
 1  1.05009997E+00  3.08749992E-02  0.00000000E+00  1.85434449E+00  9.63970959E-01 -3.59608978E-03  0.00000000E+00  9.63977635E-01  2.44391036E+00  1.31793761E+00 -1.17343120E-01  4.20771748E-01  0.00000000E+00
 1  1.05009997E+00  3.11249997E-02  0.00000000E+00  1.85444963E+00  9.63970542E-01 -3.65908002E-03  0.00000000E+00  9.63977456E-01  2.44410896E+00  1.31796992E+00 -1.18244939E-01  4.20771748E-01  0.00000000E+00
 1  1.05009997E+00  3.13749984E-02  0.00000000E+00  1.85455489E+00  9.63970125E-01 -3.72207002E-03  0.00000000E+00  9.63977277E-01  2.44430757E+00  1.31800222E+00 -1.19146757E-01  4.20771748E-01  0.00000000E+00
 1  1.05009997E+00  3.16249989E-02  0.00000000E+00  1.85466003E+00  9.63969648E-01 -3.78506025E-03  0.00000000E+00  9.63977098E-01  2.44450593E+00  1.31803453E+00 -1.20048575E-01  4.20771748E-01  0.00000000E+00
 1  1.05009997E+00  3.18749994E-02  0.00000000E+00  1.85476530E+00  9.63969231E-01 -3.84805049E-03  0.00000000E+00  9.63976920E-01  2.44470453E+00  1.31806684E+00 -1.20950393E-01  4.20771748E-01  0.00000000E+00
 1  1.05009997E+00  3.21249999E-02  0.00000000E+00  1.85487044E+00  9.63968813E-01 -3.91104072E-03  0.00000000E+00  9.63976741E-01  2.44490314E+00  1.31809914E+00 -1.21852212E-01  4.20771748E-01  0.00000000E+00
 1  1.05009997E+00  3.23750004E-02  0.00000000E+00  1.85497570E+00  9.63968396E-01 -3.97403073E-03  0.00000000E+00  9.63976622E-01  2.44510174E+00  1.31813145E+00 -1.22754030E-01  4.20771748E-01  0.00000000E+00
 1  1.05009997E+00  3.26250009E-02  0.00000000E+00  1.85508084E+00  9.63967979E-01 -4.03702073E-03  0.00000000E+00  9.63976443E-01  2.44530034E+00  1.31816375E+00 -1.23655848E-01  4.20771748E-01  0.00000000E+00
 1  1.05009997E+00  3.28750014E-02  0.00000000E+00  1.85518599E+00  9.63967562E-01 -4.10001120E-03  0.00000000E+00  9.63976264E-01  2.44549894E+00  1.31819606E+00 -1.24557666E-01  4.20771748E-01  0.00000000E+00
 1  1.05009997E+00  3.31249982E-02  0.00000000E+00  1.85529125E+00  9.63967144E-01 -4.16300120E-03  0.00000000E+00  9.63976145E-01  2.44569755E+00  1.31822836E+00 -1.25459477E-01  4.20771748E-01  0.00000000E+00
 1  1.05009997E+00  3.33749987E-02  0.00000000E+00  1.85539639E+00  9.63966727E-01 -4.22599167E-03  0.00000000E+00  9.63975966E-01  2.44589615E+00  1.31826067E+00 -1.26361296E-01  4.20771748E-01  0.00000000E+00
 1  1.05009997E+00  3.36249992E-02  0.00000000E+00  1.85550165E+00  9.63966310E-01 -4.28898167E-03  0.00000000E+00  9.63975847E-01  2.44609475E+00  1.31829298E+00 -1.27263114E-01  4.20771748E-01  0.00000000E+00
 1  1.05009997E+00  3.38749997E-02  0.00000000E+00  1.85560679E+00  9.63965893E-01 -4.35197167E-03  0.00000000E+00  9.63975728E-01  2.44629335E+00  1.31832528E+00 -1.28164932E-01  4.20771748E-01  0.00000000E+00
 1  1.05009997E+00  3.41250002E-02  0.00000000E+00  1.85571206E+00  9.63965476E-01 -4.41496214E-03  0.00000000E+00  9.63975608E-01  2.44649196E+00  1.31835759E+00 -1.29066750E-01  4.20771748E-01  0.00000000E+00
 1  1.05009997E+00  3.43750007E-02  0.00000000E+00  1.85581720E+00  9.63965058E-01 -4.47795214E-03  0.00000000E+00  9.63975430E-01  2.44669056E+00  1.31838989E+00 -1.29968569E-01  4.20771748E-01  0.00000000E+00
 1  1.05009997E+00  3.46250013E-02  0.00000000E+00  1.85592234E+00  9.63964641E-01 -4.54094214E-03  0.00000000E+00  9.63975310E-01  2.44688916E+00  1.31842220E+00 -1.30870387E-01  4.20771748E-01  0.00000000E+00
 1  1.05009997E+00  3.48750018E-02  0.00000000E+00  1.85602760E+00  9.63964224E-01 -4.60393261E-03  0.00000000E+00  9.63975191E-01  2.44708776E+00  1.31845450E+00 -1.31772205E-01  4.20771748E-01  0.00000000E+00