# CoordinateSystem = xByUzL
# Units = ISS
VARIABLES = "Found","X","Y","Z","Density","VelocityX","VelocityY","VelocityZ","VelocityMag","Pressure","Temperature","DensityGradientX","DensityGradientY","DensityGradientZ"
ZONE T="t = 7.00000000E-01",I=4000,SOLUTIONTIME=7.00000000E-01
 1  5.20099998E-01  1.25000006E-04  0.00000000E+00  1.92622113E+00  8.80756617E-01  3.32427770E-03  0.00000000E+00  8.80762935E-01  2.60812044E+00  1.35400891E+00  5.56289005E+00  4.74158478E+00  0.00000000E+00
 1  5.20099998E-01  3.75000003E-04  0.00000000E+00  1.92740655E+00  8.81573260E-01  2.90487544E-03  0.00000000E+00  8.81578028E-01  2.60932612E+00  1.35380161E+00  5.33913279E+00  4.74158478E+00  0.00000000E+00
 1  5.20099998E-01  6.24999986E-04  0.00000000E+00  1.92859197E+00  8.82389903E-01  2.48547317E-03  0.00000000E+00  8.82393360E-01  2.61053133E+00  1.35359442E+00  5.11537552E+00  4.74158478E+00  0.00000000E+00
 1  5.20099998E-01  8.75000027E-04  0.00000000E+00  1.92977726E+00  8.83206487E-01  2.06607091E-03  0.00000000E+00  8.83208930E-01  2.61173582E+00  1.35338724E+00  4.89161777E+00  4.74158478E+00  0.00000000E+00
 1  5.20099998E-01  1.12499995E-03  0.00000000E+00  1.93096268E+00  8.84023130E-01  1.64666877E-03  0.00000000E+00  8.84024680E-01  2.61294007E+00  1.35317993E+00  4.66786051E+00  4.74158478E+00  0.00000000E+00
 1  5.20099998E-01  1.37499999E-03  0.00000000E+00  1.93214810E+00  8.84839773E-01  1.22726662E-03  0.00000000E+00  8.84840608E-01  2.61414361E+00  1.35297275E+00  4.44410324E+00  4.74158478E+00  0.00000000E+00
 1  5.20099998E-01  1.62500003E-03  0.00000000E+00  1.93333352E+00  8.85656357E-01  8.07864359E-04  0.00000000E+00  8.85656774E-01  2.61534691E+00  1.35276544E+00  4.22034550E+00  4.74158478E+00  0.00000000E+00
 1  5.20099998E-01  1.87499996E-03  0.00000000E+00  1.93451893E+00  8.86473000E-01  3.88462184E-04  0.00000000E+00  8.86473060E-01  2.61654949E+00  1.35255826E+00  3.99658799E+00  4.74158478E+00  0.00000000E+00
 1  5.20099998E-01  2.12500012E-03  0.00000000E+00  1.93570435E+00  8.87289643E-01 -3.09400311E-05  0.00000000E+00  8.87289643E-01  2.61775160E+00  1.35235107E+00  3.77283072E+00  4.74158478E+00  0.00000000E+00
 1  5.20099998E-01  2.37499992E-03  0.00000000E+00  1.93688965E+00  8.88106227E-01 -4.50342253E-04  0.00000000E+00  8.88106346E-01  2.61895347E+00  1.35214376E+00  3.54907322E+00  4.74158478E+00  0.00000000E+00
 1  5.20099998E-01  2.62499996E-03  0.00000000E+00  1.93807507E+00  8.88922870E-01 -8.69744457E-04  0.00000000E+00  8.88923287E-01  2.62015462E+00  1.35193658E+00  3.32531571E+00  4.74158478E+00  0.00000000E+00
 1  5.20099998E-01  2.87500001E-03  0.00000000E+00  1.93926048E+00  8.89739513E-01 -1.28914660E-03  0.00000000E+00  8.89740407E-01  2.62135530E+00  1.35172927E+00  3.10155821E+00  4.74158478E+00  0.00000000E+00
 1  5.20099998E-01  3.12500005E-03  0.00000000E+00  1.94044590E+00  8.90556097E-01 -1.70854887E-03  0.00000000E+00  8.90557766E-01  2.62255549E+00  1.35152209E+00  2.87780070E+00  4.74158478E+00  0.00000000E+00
 1  5.20099998E-01  3.37500009E-03  0.00000000E+00  1.94163132E+00  8.91372740E-01 -2.12795101E-03  0.00000000E+00  8.91375303E-01  2.62375522E+00  1.35131490E+00  2.65404344E+00  4.74158478E+00  0.00000000E+00
 1  5.20099998E-01  3.62499990E-03  0.00000000E+00  1.94281662E+00  8.92189384E-01 -2.54735327E-03  0.00000000E+00  8.92193019E-01  2.62495446E+00  1.35110760E+00  2.43028593E+00  4.74158478E+00  0.00000000E+00
 1  5.20099998E-01  3.87499994E-03  0.00000000E+00  1.94400203E+00  8.93005967E-01 -2.96675554E-03  0.00000000E+00  8.93010914E-01  2.62615323E+00  1.35090041E+00  2.20652843E+00  4.74158478E+00  0.00000000E+00
 1  5.20099998E-01  4.12499998E-03  0.00000000E+00  1.94461596E+00  8.93569112E-01 -3.24867014E-03  0.00000000E+00  8.93575013E-01  2.62672329E+00  1.35076702E+00  2.10645175E+00  1.69943541E-01  0.00000000E+00
 1  5.20099998E-01  4.37500002E-03  0.00000000E+00  1.94465852E+00  8.93878639E-01 -3.39309685E-03  0.00000000E+00  8.93885076E-01  2.62666512E+00  1.35070765E+00  2.13005590E+00  1.69943541E-01  0.00000000E+00
 1  5.20099998E-01  4.62500006E-03  0.00000000E+00  1.94470096E+00  8.94188225E-01 -3.53752379E-03  0.00000000E+00  8.94195199E-01  2.62660670E+00  1.35064816E+00  2.15366006E+00  1.69943541E-01  0.00000000E+00
 1  5.20099998E-01  4.87500010E-03  0.00000000E+00  1.94474351E+00  8.94497812E-01 -3.68195074E-03  0.00000000E+00  8.94505382E-01  2.62654853E+00  1.35058868E+00  2.17726421E+00  1.69943541E-01  0.00000000E+00
 1  5.20099998E-01  5.12500014E-03  0.00000000E+00  1.94478595E+00  8.94807339E-01 -3.82637768E-03  0.00000000E+00  8.94815564E-01  2.62649035E+00  1.35052919E+00  2.20086837E+00  1.69943541E-01  0.00000000E+00
 1  5.20099998E-01  5.37500018E-03  0.00000000E+00  1.94482839E+00  8.95116925E-01 -3.97080462E-03  0.00000000E+00  8.95125747E-01  2.62643194E+00  1.35046971E+00  2.22447228E+00  1.69943541E-01  0.00000000E+00
 1  5.20099998E-01  5.62500022E-03  0.00000000E+00  1.94487095E+00  8.95426512E-01 -4.11523134E-03  0.00000000E+00  8.95435989E-01  2.62637377E+00  1.35041034E+00  2.24807644E+00  1.69943541E-01  0.00000000E+00
 1  5.20099998E-01  5.87499980E-03  0.00000000E+00  1.94491339E+00  8.95736098E-01 -4.25965851E-03  0.00000000E+00  8.95746231E-01  2.62631536E+00  1.35035086E+00  2.27168059E+00  1.69943541E-01  0.00000000E+00
 1  5.20099998E-01  6.12499984E-03  0.00000000E+00  1.94495595E+00  8.96045625E-01 -4.40408522E-03  0.00000000E+00  8.96056473E-01  2.62625718E+00  1.35029137E+00  2.29528475E+00  1.69943541E-01  0.00000000E+00
 1  5.20099998E-01  6.37499988E-03  0.00000000E+00  1.94499838E+00  8.96355212E-01 -4.54851240E-03  0.00000000E+00  8.96366775E-01  2.62619901E+00  1.35023189E+00  2.31888890E+00  1.69943541E-01  0.00000000E+00
 1  5.20099998E-01  6.62499992E-03  0.00000000E+00  1.94504082E+00  8.96664798E-01 -4.69293911E-03  0.00000000E+00  8.96677077E-01  2.62614059E+00  1.35017252E+00  2.34249306E+00  1.69943541E-01  0.00000000E+00
 1  5.20099998E-01  6.87499996E-03  0.00000000E+00  1.94508338E+00  8.96974385E-01 -4.83736629E-03  0.00000000E+00  8.96987379E-01  2.62608242E+00  1.35011303E+00  2.36609721E+00  1.69943541E-01  0.00000000E+00
 1  5.20099998E-01  7.12500000E-03  0.00000000E+00  1.94512582E+00  8.97283912E-01 -4.98179300E-03  0.00000000E+00  8.97297740E-01  2.62602401E+00  1.35005355E+00  2.38970113E+00  1.69943541E-01  0.00000000E+00
 1  5.20099998E-01  7.37500004E-03  0.00000000E+00  1.94516838E+00  8.97593498E-01 -5.12621971E-03  0.00000000E+00  8.97608161E-01  2.62596583E+00  1.34999406E+00  2.41330528E+00  1.69943541E-01  0.00000000E+00
 1  5.20099998E-01  7.62500009E-03  0.00000000E+00  1.94521081E+00  8.97903085E-01 -5.27064689E-03  0.00000000E+00  8.97918522E-01  2.62590742E+00  1.34993458E+00  2.43690944E+00  1.69943541E-01  0.00000000E+00
 1  5.20099998E-01  7.87500013E-03  0.00000000E+00  1.94525325E+00  8.98212612E-01 -5.41507360E-03  0.00000000E+00  8.98228943E-01  2.62584901E+00  1.34987521E+00  2.46051359E+00  1.69943541E-01  0.00000000E+00
 1  5.20099998E-01  8.12499970E-03  0.00000000E+00  1.94527376E+00  8.98272276E-01 -5.61418943E-03  0.00000000E+00  8.98289800E-01  2.62582278E+00  1.34984744E+00  2.47523069E+00 -6.23187469E-03  0.00000000E+00
 1  5.20099998E-01  8.37500021E-03  0.00000000E+00  1.94527221E+00  8.98082018E-01 -5.86799346E-03  0.00000000E+00  8.98101151E-01  2.62582803E+00  1.34985125E+00  2.48106098E+00 -6.23187469E-03  0.00000000E+00
 1  5.20099998E-01  8.62499978E-03  0.00000000E+00  1.94527066E+00  8.97891700E-01 -6.12179795E-03  0.00000000E+00  8.97912562E-01  2.62583351E+00  1.34985518E+00  2.48689103E+00 -6.23187469E-03  0.00000000E+00
 1  5.20099998E-01  8.87500029E-03  0.00000000E+00  1.94526911E+00  8.97701383E-01 -6.37560245E-03  0.00000000E+00  8.97724032E-01  2.62583899E+00  1.34985900E+00  2.49272132E+00 -6.23187469E-03  0.00000000E+00
 1  5.20099998E-01  9.12499987E-03  0.00000000E+00  1.94526756E+00  8.97511125E-01 -6.62940647E-03  0.00000000E+00  8.97535622E-01  2.62584448E+00  1.34986293E+00  2.49855137E+00 -6.23187469E-03  0.00000000E+00
 1  5.20099998E-01  9.37500037E-03  0.00000000E+00  1.94526601E+00  8.97320807E-01 -6.88321097E-03  0.00000000E+00  8.97347212E-01  2.62584996E+00  1.34986687E+00  2.50438166E+00 -6.23187469E-03  0.00000000E+00
 1  5.20099998E-01  9.62499995E-03  0.00000000E+00  1.94526446E+00  8.97130549E-01 -7.13701546E-03  0.00000000E+00  8.97158921E-01  2.62585545E+00  1.34987068E+00  2.51021171E+00 -6.23187469E-03  0.00000000E+00
 1  5.20099998E-01  9.87500045E-03  0.00000000E+00  1.94526291E+00  8.96940231E-01 -7.39081949E-03  0.00000000E+00  8.96970689E-01  2.62586093E+00  1.34987462E+00  2.51604199E+00 -6.23187469E-03  0.00000000E+00
 1  5.20099998E-01  1.01250000E-02  0.00000000E+00  1.94526124E+00  8.96749973E-01 -7.64462398E-03  0.00000000E+00  8.96782517E-01  2.62586641E+00  1.34987843E+00  2.52187204E+00 -6.23187469E-03  0.00000000E+00
 1  5.20099998E-01  1.03749996E-02  0.00000000E+00  1.94525969E+00  8.96559656E-01 -7.89842848E-03  0.00000000E+00  8.96594465E-01  2.62587190E+00  1.34988236E+00  2.52770233E+00 -6.23187469E-03  0.00000000E+00
 1  5.20099998E-01  1.06250001E-02  0.00000000E+00  1.94525814E+00  8.96369398E-01 -8.15223251E-03  0.00000000E+00  8.96406472E-01  2.62587714E+00  1.34988630E+00  2.53353238E+00 -6.23187469E-03  0.00000000E+00
 1  5.20099998E-01  1.08749997E-02  0.00000000E+00  1.94525659E+00  8.96179080E-01 -8.40603746E-03  0.00000000E+00  8.96218538E-01  2.62588263E+00  1.34989011E+00  2.53936267E+00 -6.23187469E-03  0.00000000E+00
 1  5.20099998E-01  1.11250002E-02  0.00000000E+00  1.94525504E+00  8.95988822E-01 -8.65984149E-03  0.00000000E+00  8.96030664E-01  2.62588811E+00  1.34989405E+00  2.54519272E+00 -6.23187469E-03  0.00000000E+00
 1  5.20099998E-01  1.13749998E-02  0.00000000E+00  1.94525349E+00  8.95798504E-01 -8.91364552E-03  0.00000000E+00  8.95842850E-01  2.62589359E+00  1.34989786E+00  2.55102301E+00 -6.23187469E-03  0.00000000E+00
 1  5.20099998E-01  1.16250003E-02  0.00000000E+00  1.94525194E+00  8.95608187E-01 -9.16745048E-03  0.00000000E+00  8.95655155E-01  2.62589908E+00  1.34990180E+00  2.55685306E+00 -6.23187469E-03  0.00000000E+00
 1  5.20099998E-01  1.18749999E-02  0.00000000E+00  1.94525039E+00  8.95417929E-01 -9.42125451E-03  0.00000000E+00  8.95467460E-01  2.62590456E+00  1.34990573E+00  2.56268334E+00 -6.23187469E-03  0.00000000E+00
 1  5.20099998E-01  1.21250004E-02  0.00000000E+00  1.94531631E+00  8.95413637E-01 -9.69226100E-03  0.00000000E+00  8.95466089E-01  2.62590861E+00  1.34986210E+00  2.56083083E+00  5.33182740E-01  0.00000000E+00
 1  5.20099998E-01  1.23749999E-02  0.00000000E+00  1.94544959E+00  8.95595431E-01 -9.98046994E-03  0.00000000E+00  8.95651042E-01  2.62591124E+00  1.34977090E+00  2.55129600E+00  5.33182740E-01  0.00000000E+00
 1  5.20099998E-01  1.26250004E-02  0.00000000E+00  1.94558287E+00  8.95777166E-01 -1.02686798E-02  0.00000000E+00  8.95835996E-01  2.62591386E+00  1.34967983E+00  2.54176140E+00  5.33182740E-01  0.00000000E+00
 1  5.20099998E-01  1.28750000E-02  0.00000000E+00  1.94571614E+00  8.95958900E-01 -1.05568888E-02  0.00000000E+00  8.96021068E-01  2.62591648E+00  1.34958875E+00  2.53222656E+00  5.33182740E-01  0.00000000E+00
 1  5.20099998E-01  1.31249996E-02  0.00000000E+00  1.94584942E+00  8.96140635E-01 -1.08450977E-02  0.00000000E+00  8.96206260E-01  2.62591910E+00  1.34949768E+00  2.52269173E+00  5.33182740E-01  0.00000000E+00
 1  5.20099998E-01  1.33750001E-02  0.00000000E+00  1.94598269E+00  8.96322429E-01 -1.11333067E-02  0.00000000E+00  8.96391571E-01  2.62592173E+00  1.34940648E+00  2.51315689E+00  5.33182740E-01  0.00000000E+00
 1  5.20099998E-01  1.36249997E-02  0.00000000E+00  1.94611609E+00  8.96504164E-01 -1.14215156E-02  0.00000000E+00  8.96576881E-01  2.62592435E+00  1.34931540E+00  2.50362206E+00  5.33182740E-01  0.00000000E+00
 1  5.20099998E-01  1.38750002E-02  0.00000000E+00  1.94624937E+00  8.96685898E-01 -1.17097246E-02  0.00000000E+00  8.96762371E-01  2.62592697E+00  1.34922433E+00  2.49408722E+00  5.33182740E-01  0.00000000E+00
 1  5.20099998E-01  1.41249998E-02  0.00000000E+00  1.94638264E+00  8.96867633E-01 -1.19979344E-02  0.00000000E+00  8.96947920E-01  2.62592936E+00  1.34913313E+00  2.48455238E+00  5.33182740E-01  0.00000000E+00
 1  5.20099998E-01  1.43750003E-02  0.00000000E+00  1.94651592E+00  8.97049427E-01 -1.22861434E-02  0.00000000E+00  8.97133529E-01  2.62593174E+00  1.34904206E+00  2.47501755E+00  5.33182740E-01  0.00000000E+00
 1  5.20099998E-01  1.46249998E-02  0.00000000E+00  1.94664919E+00  8.97231162E-01 -1.25743523E-02  0.00000000E+00  8.97319257E-01  2.62593436E+00  1.34895098E+00  2.46548271E+00  5.33182740E-01  0.00000000E+00
 1  5.20099998E-01  1.48750003E-02  0.00000000E+00  1.94678247E+00  8.97412896E-01 -1.28625613E-02  0.00000000E+00  8.97505045E-01  2.62593675E+00  1.34885979E+00  2.45594788E+00  5.33182740E-01  0.00000000E+00
 1  5.20099998E-01  1.51249999E-02  0.00000000E+00  1.94691586E+00  8.97594631E-01 -1.31507702E-02  0.00000000E+00  8.97690952E-01  2.62593913E+00  1.34876871E+00  2.44641304E+00  5.33182740E-01  0.00000000E+00
 1  5.20099998E-01  1.53750004E-02  0.00000000E+00  1.94704914E+00  8.97776425E-01 -1.34389801E-02  0.00000000E+00  8.97876978E-01  2.62594151E+00  1.34867764E+00  2.43687820E+00  5.33182740E-01  0.00000000E+00
 1  5.20099998E-01  1.56250000E-02  0.00000000E+00  1.94718242E+00  8.97958159E-01 -1.37271890E-02  0.00000000E+00  8.98063064E-01  2.62594390E+00  1.34858656E+00  2.42734337E+00  5.33182740E-01  0.00000000E+00
 1  5.20099998E-01  1.58750005E-02  0.00000000E+00  1.94731569E+00  8.98139894E-01 -1.40153980E-02  0.00000000E+00  8.98249269E-01  2.62594628E+00  1.34849536E+00  2.41780853E+00  5.33182740E-01  0.00000000E+00
 1  5.20099998E-01  1.61249992E-02  0.00000000E+00  1.94748592E+00  8.98269594E-01 -1.42842941E-02  0.00000000E+00  8.98383200E-01  2.62601972E+00  1.34841526E+00  2.38789153E+00  8.28464568E-01  0.00000000E+00
 1  5.20099998E-01  1.63749997E-02  0.00000000E+00  1.94769299E+00  8.98347318E-01 -1.45338783E-02  0.00000000E+00  8.98464859E-01  2.62616444E+00  1.34834623E+00  2.33759236E+00  8.28464568E-01  0.00000000E+00
 1  5.20099998E-01  1.66250002E-02  0.00000000E+00  1.94790018E+00  8.98424983E-01 -1.47834625E-02  0.00000000E+00  8.98546636E-01  2.62630916E+00  1.34827709E+00  2.28729296E+00  8.28464568E-01  0.00000000E+00
 1  5.20099998E-01  1.68750007E-02  0.00000000E+00  1.94810724E+00  8.98502707E-01 -1.50330467E-02  0.00000000E+00  8.98628473E-01  2.62645388E+00  1.34820807E+00  2.23699355E+00  8.28464568E-01  0.00000000E+00
 1  5.20099998E-01  1.71249993E-02  0.00000000E+00  1.94831431E+00  8.98580372E-01 -1.52826309E-02  0.00000000E+00  8.98710370E-01  2.62659836E+00  1.34813893E+00  2.18669438E+00  8.28464568E-01  0.00000000E+00
 1  5.20099998E-01  1.73749998E-02  0.00000000E+00  1.94852149E+00  8.98658097E-01 -1.55322142E-02  0.00000000E+00  8.98792326E-01  2.62674308E+00  1.34806979E+00  2.13639498E+00  8.28464568E-01  0.00000000E+00
 1  5.20099998E-01  1.76250003E-02  0.00000000E+00  1.94872856E+00  8.98735762E-01 -1.57817993E-02  0.00000000E+00  8.98874342E-01  2.62688756E+00  1.34800076E+00  2.08609581E+00  8.28464568E-01  0.00000000E+00
 1  5.20099998E-01  1.78750008E-02  0.00000000E+00  1.94893575E+00  8.98813486E-01 -1.60313826E-02  0.00000000E+00  8.98956418E-01  2.62703204E+00  1.34793162E+00  2.03579640E+00  8.28464568E-01  0.00000000E+00
 1  5.20099998E-01  1.81249995E-02  0.00000000E+00  1.94914281E+00  8.98891151E-01 -1.62809659E-02  0.00000000E+00  8.99038613E-01  2.62717676E+00  1.34786260E+00  1.98549712E+00  8.28464568E-01  0.00000000E+00
 1  5.20099998E-01  1.83750000E-02  0.00000000E+00  1.94935000E+00  8.98968875E-01 -1.65305510E-02  0.00000000E+00  8.99120808E-01  2.62732100E+00  1.34779346E+00  1.93519783E+00  8.28464568E-01  0.00000000E+00
 1  5.20099998E-01  1.86250005E-02  0.00000000E+00  1.94955707E+00  8.99046540E-01 -1.67801343E-02  0.00000000E+00  8.99203122E-01  2.62746549E+00  1.34772432E+00  1.88489854E+00  8.28464568E-01  0.00000000E+00
 1  5.20099998E-01  1.88749991E-02  0.00000000E+00  1.94976413E+00  8.99124265E-01 -1.70297176E-02  0.00000000E+00  8.99285495E-01  2.62760997E+00  1.34765530E+00  1.83459926E+00  8.28464568E-01  0.00000000E+00
 1  5.20099998E-01  1.91249996E-02  0.00000000E+00  1.94997132E+00  8.99201930E-01 -1.72793027E-02  0.00000000E+00  8.99367929E-01  2.62775445E+00  1.34758615E+00  1.78429985E+00  8.28464568E-01  0.00000000E+00
 1  5.20099998E-01  1.93750001E-02  0.00000000E+00  1.95017838E+00  8.99279654E-01 -1.75288860E-02  0.00000000E+00  8.99450481E-01  2.62789869E+00  1.34751713E+00  1.73400056E+00  8.28464568E-01  0.00000000E+00
 1  5.20099998E-01  1.96250007E-02  0.00000000E+00  1.95038557E+00  8.99357319E-01 -1.77784711E-02  0.00000000E+00  8.99533033E-01  2.62804317E+00  1.34744799E+00  1.68370128E+00  8.28464568E-01  0.00000000E+00
 1  5.20099998E-01  1.98749993E-02  0.00000000E+00  1.95059264E+00  8.99435043E-01 -1.80280544E-02  0.00000000E+00  8.99615705E-01  2.62818742E+00  1.34737897E+00  1.63340199E+00  8.28464568E-01  0.00000000E+00
 1  5.20099998E-01  2.01249998E-02  0.00000000E+00  1.95085537E+00  8.99434090E-01 -1.82146225E-02  0.00000000E+00  8.99618506E-01  2.62847281E+00  1.34734368E+00  1.56306756E+00  1.27380812E+00  0.00000000E+00
 1  5.20099998E-01  2.03750003E-02  0.00000000E+00  1.95117390E+00  8.99354458E-01 -1.83381736E-02  0.00000000E+00  8.99541438E-01  2.62889910E+00  1.34734225E+00  1.47269809E+00  1.27380812E+00  0.00000000E+00
 1  5.20099998E-01  2.06250008E-02  0.00000000E+00  1.95149231E+00  8.99274886E-01 -1.84617247E-02  0.00000000E+00  8.99464369E-01  2.62932539E+00  1.34734082E+00  1.38232863E+00  1.27380812E+00  0.00000000E+00
 1  5.20099998E-01  2.08749995E-02  0.00000000E+00  1.95181084E+00  8.99195254E-01 -1.85852759E-02  0.00000000E+00  8.99387300E-01  2.62975168E+00  1.34733939E+00  1.29195905E+00  1.27380812E+00  0.00000000E+00
 1  5.20099998E-01  2.11250000E-02  0.00000000E+00  1.95212924E+00  8.99115682E-01 -1.87088270E-02  0.00000000E+00  8.99310291E-01  2.63017797E+00  1.34733808E+00  1.20158958E+00  1.27380812E+00  0.00000000E+00
 1  5.20099998E-01  2.13750005E-02  0.00000000E+00  1.95244765E+00  8.99036050E-01 -1.88323781E-02  0.00000000E+00  8.99233282E-01  2.63060427E+00  1.34733665E+00  1.11122012E+00  1.27380812E+00  0.00000000E+00
 1  5.20099998E-01  2.16249991E-02  0.00000000E+00  1.95276618E+00  8.98956478E-01 -1.89559292E-02  0.00000000E+00  8.99156332E-01  2.63103056E+00  1.34733522E+00  1.02085054E+00  1.27380812E+00  0.00000000E+00
 1  5.20099998E-01  2.18749996E-02  0.00000000E+00  1.95308459E+00  8.98876846E-01 -1.90794803E-02  0.00000000E+00  8.99079323E-01  2.63145685E+00  1.34733379E+00  9.30481076E-01  1.27380812E+00  0.00000000E+00
 1  5.20099998E-01  2.21250001E-02  0.00000000E+00  1.95340300E+00  8.98797274E-01 -1.92030314E-02  0.00000000E+00  8.99002373E-01  2.63188314E+00  1.34733236E+00  8.40111554E-01  1.27380812E+00  0.00000000E+00
 1  5.20099998E-01  2.23750006E-02  0.00000000E+00  1.95372152E+00  8.98717701E-01 -1.93265826E-02  0.00000000E+00  8.98925483E-01  2.63230944E+00  1.34733105E+00  7.49742031E-01  1.27380812E+00  0.00000000E+00
 1  5.20099998E-01  2.26249993E-02  0.00000000E+00  1.95403993E+00  8.98638070E-01 -1.94501355E-02  0.00000000E+00  8.98848534E-01  2.63273573E+00  1.34732962E+00  6.59372568E-01  1.27380812E+00  0.00000000E+00
 1  5.20099998E-01  2.28749998E-02  0.00000000E+00  1.95435846E+00  8.98558497E-01 -1.95736866E-02  0.00000000E+00  8.98771644E-01  2.63316202E+00  1.34732819E+00  5.69003046E-01  1.27380812E+00  0.00000000E+00
 1  5.20099998E-01  2.31250003E-02  0.00000000E+00  1.95467687E+00  8.98478866E-01 -1.96972378E-02  0.00000000E+00  8.98694754E-01  2.63358855E+00  1.34732676E+00  4.78633523E-01  1.27380812E+00  0.00000000E+00
 1  5.20099998E-01  2.33750008E-02  0.00000000E+00  1.95499527E+00  8.98399293E-01 -1.98207889E-02  0.00000000E+00  8.98617923E-01  2.63401484E+00  1.34732533E+00  3.88264030E-01  1.27380812E+00  0.00000000E+00
 1  5.20099998E-01  2.36249994E-02  0.00000000E+00  1.95531380E+00  8.98319662E-01 -1.99443400E-02  0.00000000E+00  8.98541033E-01  2.63444114E+00  1.34732389E+00  2.97894508E-01  1.27380812E+00  0.00000000E+00
 1  5.20099998E-01  2.38750000E-02  0.00000000E+00  1.95563221E+00  8.98240089E-01 -2.00678911E-02  0.00000000E+00  8.98464203E-01  2.63486743E+00  1.34732258E+00  2.07525015E-01  1.27380812E+00  0.00000000E+00
 1  5.20099998E-01  2.41250005E-02  0.00000000E+00  1.95600152E+00  8.98078442E-01 -2.01075934E-02  0.00000000E+00  8.98303509E-01  2.63545036E+00  1.34736621E+00  1.15014672E-01  1.68075502E+00  0.00000000E+00
 1  5.20099998E-01  2.43749991E-02  0.00000000E+00  1.95642173E+00  8.97834659E-01 -2.00634450E-02  0.00000000E+00  8.98058832E-01  2.63618994E+00  1.34745479E+00  2.03634910E-02  1.68075502E+00  0.00000000E+00
 1  5.20099998E-01  2.46249996E-02  0.00000000E+00  1.95684195E+00  8.97590935E-01 -2.00192966E-02  0.00000000E+00  8.97814155E-01  2.63692951E+00  1.34754348E+00 -7.42876902E-02  1.68075502E+00  0.00000000E+00
 1  5.20099998E-01  2.48750001E-02  0.00000000E+00  1.95726204E+00  8.97347212E-01 -1.99751481E-02  0.00000000E+00  8.97569478E-01  2.63766932E+00  1.34763205E+00 -1.68938875E-01  1.68075502E+00  0.00000000E+00
 1  5.20099998E-01  2.51250006E-02  0.00000000E+00  1.95768225E+00  8.97103488E-01 -1.99309997E-02  0.00000000E+00  8.97324860E-01  2.63840914E+00  1.34772074E+00 -2.63590038E-01  1.68075502E+00  0.00000000E+00
 1  5.20099998E-01  2.53749993E-02  0.00000000E+00  1.95810246E+00  8.96859705E-01 -1.98868513E-02  0.00000000E+00  8.97080183E-01  2.63914895E+00  1.34780943E+00 -3.58241230E-01  1.68075502E+00  0.00000000E+00
 1  5.20099998E-01  2.56249998E-02  0.00000000E+00  1.95852268E+00  8.96615982E-01 -1.98427029E-02  0.00000000E+00  8.96835506E-01  2.63988876E+00  1.34789801E+00 -4.52892423E-01  1.68075502E+00  0.00000000E+00
 1  5.20099998E-01  2.58750003E-02  0.00000000E+00  1.95894289E+00  8.96372259E-01 -1.97985545E-02  0.00000000E+00  8.96590889E-01  2.64062881E+00  1.34798670E+00 -5.47543585E-01  1.68075502E+00  0.00000000E+00
 1  5.20099998E-01  2.61250008E-02  0.00000000E+00  1.95936298E+00  8.96128535E-01 -1.97544061E-02  0.00000000E+00  8.96346211E-01  2.64136887E+00  1.34807539E+00 -6.42194748E-01  1.68075502E+00  0.00000000E+00
 1  5.20099998E-01  2.63749994E-02  0.00000000E+00  1.95978320E+00  8.95884812E-01 -1.97102576E-02  0.00000000E+00  8.96101594E-01  2.64210916E+00  1.34816396E+00 -7.36845970E-01  1.68075502E+00  0.00000000E+00
 1  5.20099998E-01  2.66249999E-02  0.00000000E+00  1.96020341E+00  8.95641029E-01 -1.96661092E-02  0.00000000E+00  8.95856917E-01  2.64284945E+00  1.34825265E+00 -8.31497133E-01  1.68075502E+00  0.00000000E+00
 1  5.20099998E-01  2.68750004E-02  0.00000000E+00  1.96062362E+00  8.95397305E-01 -1.96219608E-02  0.00000000E+00  8.95612299E-01  2.64358974E+00  1.34834123E+00 -9.26148295E-01  1.68075502E+00  0.00000000E+00
 1  5.20099998E-01  2.71249991E-02  0.00000000E+00  1.96104383E+00  8.95153582E-01 -1.95778124E-02  0.00000000E+00  8.95367622E-01  2.64433002E+00  1.34842992E+00 -1.02079952E+00  1.68075502E+00  0.00000000E+00
 1  5.20099998E-01  2.73749996E-02  0.00000000E+00  1.96146393E+00  8.94909859E-01 -1.95336640E-02  0.00000000E+00  8.95123005E-01  2.64507055E+00  1.34851861E+00 -1.11545062E+00  1.68075502E+00  0.00000000E+00
 1  5.20099998E-01  2.76250001E-02  0.00000000E+00  1.96188414E+00  8.94666076E-01 -1.94895156E-02  0.00000000E+00  8.94878387E-01  2.64581108E+00  1.34860718E+00 -1.21010184E+00  1.68075502E+00  0.00000000E+00
 1  5.20099998E-01  2.78750006E-02  0.00000000E+00  1.96230435E+00  8.94422352E-01 -1.94453672E-02  0.00000000E+00  8.94633710E-01  2.64655185E+00  1.34869587E+00 -1.30475307E+00  1.68075502E+00  0.00000000E+00
 1  5.20099998E-01  2.81249993E-02  0.00000000E+00  1.96270394E+00  8.94180536E-01 -1.93559416E-02  0.00000000E+00  8.94389987E-01  2.64729905E+00  1.34880197E+00 -1.36415088E+00  1.51628494E+00  0.00000000E+00
 1  5.20099998E-01  2.83749998E-02  0.00000000E+00  1.96308303E+00  8.93940628E-01 -1.92212407E-02  0.00000000E+00  8.94147217E-01  2.64805293E+00  1.34892559E+00 -1.38829553E+00  1.51628494E+00  0.00000000E+00
 1  5.20099998E-01  2.86250003E-02  0.00000000E+00  1.96346211E+00  8.93700659E-01 -1.90865397E-02  0.00000000E+00  8.93904448E-01  2.64880681E+00  1.34904909E+00 -1.41244006E+00  1.51628494E+00  0.00000000E+00
 1  5.20099998E-01  2.88750008E-02  0.00000000E+00  1.96384120E+00  8.93460751E-01 -1.89518388E-02  0.00000000E+00  8.93661737E-01  2.64956093E+00  1.34917271E+00 -1.43658471E+00  1.51628494E+00  0.00000000E+00
 1  5.20099998E-01  2.91249994E-02  0.00000000E+00  1.96422029E+00  8.93220842E-01 -1.88171361E-02  0.00000000E+00  8.93419027E-01  2.65031528E+00  1.34929633E+00 -1.46072924E+00  1.51628494E+00  0.00000000E+00
 1  5.20099998E-01  2.93749999E-02  0.00000000E+00  1.96459937E+00  8.92980874E-01 -1.86824352E-02  0.00000000E+00  8.93176317E-01  2.65106940E+00  1.34941995E+00 -1.48487389E+00  1.51628494E+00  0.00000000E+00
 1  5.20099998E-01  2.96250004E-02  0.00000000E+00  1.96497846E+00  8.92740965E-01 -1.85477342E-02  0.00000000E+00  8.92933607E-01  2.65182376E+00  1.34954345E+00 -1.50901842E+00  1.51628494E+00  0.00000000E+00
 1  5.20099998E-01  2.98749991E-02  0.00000000E+00  1.96535754E+00  8.92500997E-01 -1.84130333E-02  0.00000000E+00  8.92690957E-01  2.65257835E+00  1.34966707E+00 -1.53316307E+00  1.51628494E+00  0.00000000E+00
 1  5.20099998E-01  3.01249996E-02  0.00000000E+00  1.96573651E+00  8.92261088E-01 -1.82783324E-02  0.00000000E+00  8.92448306E-01  2.65333295E+00  1.34979069E+00 -1.55730760E+00  1.51628494E+00  0.00000000E+00
 1  5.20099998E-01  3.03750001E-02  0.00000000E+00  1.96611559E+00  8.92021179E-01 -1.81436315E-02  0.00000000E+00  8.92205656E-01  2.65408754E+00  1.34991419E+00 -1.58145225E+00  1.51628494E+00  0.00000000E+00
 1  5.20099998E-01  3.06250006E-02  0.00000000E+00  1.96649468E+00  8.91781211E-01 -1.80089287E-02  0.00000000E+00  8.91963065E-01  2.65484214E+00  1.35003781E+00 -1.60559678E+00  1.51628494E+00  0.00000000E+00
 1  5.20099998E-01  3.08749992E-02  0.00000000E+00  1.96687376E+00  8.91541302E-01 -1.78742278E-02  0.00000000E+00  8.91720474E-01  2.65559697E+00  1.35016143E+00 -1.62974143E+00  1.51628494E+00  0.00000000E+00
 1  5.20099998E-01  3.11249997E-02  0.00000000E+00  1.96725285E+00  8.91301394E-01 -1.77395269E-02  0.00000000E+00  8.91477883E-01  2.65635204E+00  1.35028505E+00 -1.65388608E+00  1.51628494E+00  0.00000000E+00
 1  5.20099998E-01  3.13749984E-02  0.00000000E+00  1.96763194E+00  8.91061425E-01 -1.76048260E-02  0.00000000E+00  8.91235352E-01  2.65710711E+00  1.35040855E+00 -1.67803061E+00  1.51628494E+00  0.00000000E+00
 1  5.20099998E-01  3.16249989E-02  0.00000000E+00  1.96801102E+00  8.90821517E-01 -1.74701251E-02  0.00000000E+00  8.90992820E-01  2.65786219E+00  1.35053217E+00 -1.70217526E+00  1.51628494E+00  0.00000000E+00
 1  5.20099998E-01  3.18749994E-02  0.00000000E+00  1.96839011E+00  8.90581608E-01 -1.73354242E-02  0.00000000E+00  8.90750289E-01  2.65861726E+00  1.35065579E+00 -1.72631979E+00  1.51628494E+00  0.00000000E+00
 1  5.20099998E-01  3.21249999E-02  0.00000000E+00  1.96854222E+00  8.90505254E-01 -1.72698721E-02  0.00000000E+00  8.90672684E-01  2.65894675E+00  1.35071862E+00 -1.66931844E+00 -2.98900813E-01  0.00000000E+00
 1  5.20099998E-01  3.23750004E-02  0.00000000E+00  1.96846747E+00  8.90592515E-01 -1.72734708E-02  0.00000000E+00  8.90760005E-01  2.65885019E+00  1.35072088E+00 -1.53117096E+00 -2.98900813E-01  0.00000000E+00
 1  5.20099998E-01  3.26250009E-02  0.00000000E+00  1.96839273E+00  8.90679777E-01 -1.72770694E-02  0.00000000E+00  8.90847385E-01  2.65875363E+00  1.35072315E+00 -1.39302361E+00 -2.98900813E-01  0.00000000E+00
 1  5.20099998E-01  3.28750014E-02  0.00000000E+00  1.96831810E+00  8.90767097E-01 -1.72806662E-02  0.00000000E+00  8.90934706E-01  2.65865707E+00  1.35072529E+00 -1.25487614E+00 -2.98900813E-01  0.00000000E+00
 1  5.20099998E-01  3.31249982E-02  0.00000000E+00  1.96824336E+00  8.90854359E-01 -1.72842648E-02  0.00000000E+00  8.91022027E-01  2.65856051E+00  1.35072756E+00 -1.11672878E+00 -2.98900813E-01  0.00000000E+00
 1  5.20099998E-01  3.33749987E-02  0.00000000E+00  1.96816862E+00  8.90941620E-01 -1.72878634E-02  0.00000000E+00  8.91109347E-01  2.65846395E+00  1.35072982E+00 -9.78581309E-01 -2.98900813E-01  0.00000000E+00
 1  5.20099998E-01  3.36249992E-02  0.00000000E+00  1.96809387E+00  8.91028941E-01 -1.72914620E-02  0.00000000E+00  8.91196668E-01  2.65836740E+00  1.35073197E+00 -8.40433896E-01 -2.98900813E-01  0.00000000E+00
 1  5.20099998E-01  3.38749997E-02  0.00000000E+00  1.96801913E+00  8.91116202E-01 -1.72950607E-02  0.00000000E+00  8.91283989E-01  2.65827084E+00  1.35073423E+00 -7.02286482E-01 -2.98900813E-01  0.00000000E+00
 1  5.20099998E-01  3.41250002E-02  0.00000000E+00  1.96794438E+00  8.91203463E-01 -1.72986593E-02  0.00000000E+00  8.91371310E-01  2.65817428E+00  1.35073650E+00 -5.64139068E-01 -2.98900813E-01  0.00000000E+00
 1  5.20099998E-01  3.43750007E-02  0.00000000E+00  1.96786976E+00  8.91290724E-01 -1.73022579E-02  0.00000000E+00  8.91458690E-01  2.65807772E+00  1.35073864E+00 -4.25991684E-01 -2.98900813E-01  0.00000000E+00
 1  5.20099998E-01  3.46250013E-02  0.00000000E+00  1.96779501E+00  8.91378045E-01 -1.73058547E-02  0.00000000E+00  8.91546011E-01  2.65798116E+00  1.35074091E+00 -2.87844270E-01 -2.98900813E-01  0.00000000E+00
 1  5.20099998E-01  3.48750018E-02  0.00000000E+00  1.96772027E+00  8.91465306E-01 -1.73094533E-02  0.00000000E+00  8.91633332E-01  2.65788460E+00  1.35074317E+00 -1.49696857E-01 -2.98900813E-01  0.00000000E+00