# CoordinateSystem = xByUzL
# Units = ISS
VARIABLES = "Found","X","Y","Z","Density","VelocityX","VelocityY","VelocityZ","VelocityMag","Pressure","Temperature","DensityGradientX","DensityGradientY","DensityGradientZ"
ZONE T="t = 7.00000000E-01",I=4000,SOLUTIONTIME=7.00000000E-01
 1  1.05009997E+00  1.25000006E-04  0.00000000E+00  1.85744572E+00  9.63857949E-01  1.84894641E-04  0.00000000E+00  9.63857949E-01  2.45819426E+00  1.32342720E+00  1.22325450E-01  1.55454063E+00  0.00000000E+00
 1  1.05009997E+00  3.75000003E-04  0.00000000E+00  1.85783434E+00  9.64892507E-01  4.32955479E-04  0.00000000E+00  9.64892566E-01  2.45814705E+00  1.32312489E+00  1.21955894E-01  1.55454063E+00  0.00000000E+00
 1  1.05009997E+00  6.24999986E-04  0.00000000E+00  1.85822296E+00  9.65927064E-01  6.81016303E-04  0.00000000E+00  9.65927303E-01  2.45809937E+00  1.32282269E+00  1.21586338E-01  1.55454063E+00  0.00000000E+00
 1  1.05009997E+00  8.75000027E-04  0.00000000E+00  1.85861158E+00  9.66961622E-01  9.29077156E-04  0.00000000E+00  9.66962039E-01  2.45805168E+00  1.32252038E+00  1.21216781E-01  1.55454063E+00  0.00000000E+00
 1  1.05009997E+00  1.12499995E-03  0.00000000E+00  1.85900021E+00  9.67996120E-01  1.17713795E-03  0.00000000E+00  9.67996836E-01  2.45800376E+00  1.32221806E+00  1.20847225E-01  1.55454063E+00  0.00000000E+00
 1  1.05009997E+00  1.37499999E-03  0.00000000E+00  1.85938895E+00  9.69030678E-01  1.42519874E-03  0.00000000E+00  9.69031751E-01  2.45795560E+00  1.32191575E+00  1.20477669E-01  1.55454063E+00  0.00000000E+00
 1  1.05009997E+00  1.62500003E-03  0.00000000E+00  1.85977757E+00  9.70065236E-01  1.67325966E-03  0.00000000E+00  9.70066667E-01  2.45790720E+00  1.32161355E+00  1.20108113E-01  1.55454063E+00  0.00000000E+00
 1  1.05009997E+00  1.87499996E-03  0.00000000E+00  1.86016619E+00  9.71099794E-01  1.92132045E-03  0.00000000E+00  9.71101701E-01  2.45785832E+00  1.32131124E+00  1.19738556E-01  1.55454063E+00  0.00000000E+00
 1  1.05009997E+00  2.12500012E-03  0.00000000E+00  1.86055481E+00  9.72134352E-01  2.16938136E-03  0.00000000E+00  9.72136796E-01  2.45780945E+00  1.32100892E+00  1.19369000E-01  1.55454063E+00  0.00000000E+00
 1  1.05009997E+00  2.37499992E-03  0.00000000E+00  1.86094344E+00  9.73168910E-01  2.41744216E-03  0.00000000E+00  9.73171890E-01  2.45776033E+00  1.32070661E+00  1.18999444E-01  1.55454063E+00  0.00000000E+00
 1  1.05009997E+00  2.62499996E-03  0.00000000E+00  1.86133206E+00  9.74203467E-01  2.66550295E-03  0.00000000E+00  9.74207103E-01  2.45771098E+00  1.32040441E+00  1.18629888E-01  1.55454063E+00  0.00000000E+00
 1  1.05009997E+00  2.87500001E-03  0.00000000E+00  1.86172068E+00  9.75238025E-01  2.91356375E-03  0.00000000E+00  9.75242376E-01  2.45766139E+00  1.32010210E+00  1.18260331E-01  1.55454063E+00  0.00000000E+00
 1  1.05009997E+00  3.12500005E-03  0.00000000E+00  1.86210930E+00  9.76272583E-01  3.16162454E-03  0.00000000E+00  9.76277709E-01  2.45761156E+00  1.31979978E+00  1.17890775E-01  1.55454063E+00  0.00000000E+00
 1  1.05009997E+00  3.37500009E-03  0.00000000E+00  1.86242461E+00  9.77167606E-01  3.40837194E-03  0.00000000E+00  9.77173567E-01  2.45753884E+00  1.31953728E+00  1.17334045E-01 -2.04698622E-01  0.00000000E+00
 1  1.05009997E+00  3.62499990E-03  0.00000000E+00  1.86237347E+00  9.77365017E-01  3.64855118E-03  0.00000000E+00  9.77371871E-01  2.45735288E+00  1.31947374E+00  1.15841419E-01 -2.04698622E-01  0.00000000E+00
 1  1.05009997E+00  3.87499994E-03  0.00000000E+00  1.86232233E+00  9.77562487E-01  3.88873066E-03  0.00000000E+00  9.77570176E-01  2.45716691E+00  1.31941009E+00  1.14348792E-01 -2.04698622E-01  0.00000000E+00
 1  1.05009997E+00  4.12499998E-03  0.00000000E+00  1.86227119E+00  9.77759898E-01  4.12891014E-03  0.00000000E+00  9.77768600E-01  2.45698094E+00  1.31934643E+00  1.12856172E-01 -2.04698622E-01  0.00000000E+00
 1  1.05009997E+00  4.37500002E-03  0.00000000E+00  1.86221993E+00  9.77957308E-01  4.36908938E-03  0.00000000E+00  9.77967083E-01  2.45679498E+00  1.31928289E+00  1.11363545E-01 -2.04698622E-01  0.00000000E+00
 1  1.05009997E+00  4.62500006E-03  0.00000000E+00  1.86216879E+00  9.78154778E-01  4.60926909E-03  0.00000000E+00  9.78165627E-01  2.45660901E+00  1.31921923E+00  1.09870926E-01 -2.04698622E-01  0.00000000E+00
 1  1.05009997E+00  4.87500010E-03  0.00000000E+00  1.86211765E+00  9.78352189E-01  4.84944833E-03  0.00000000E+00  9.78364229E-01  2.45642304E+00  1.31915569E+00  1.08378299E-01 -2.04698622E-01  0.00000000E+00
 1  1.05009997E+00  5.12500014E-03  0.00000000E+00  1.86206651E+00  9.78549659E-01  5.08962758E-03  0.00000000E+00  9.78562891E-01  2.45623708E+00  1.31909204E+00  1.06885672E-01 -2.04698622E-01  0.00000000E+00
 1  1.05009997E+00  5.37500018E-03  0.00000000E+00  1.86201525E+00  9.78747070E-01  5.32980729E-03  0.00000000E+00  9.78761613E-01  2.45605111E+00  1.31902850E+00  1.05393052E-01 -2.04698622E-01  0.00000000E+00
 1  1.05009997E+00  5.62500022E-03  0.00000000E+00  1.86196411E+00  9.78944540E-01  5.56998653E-03  0.00000000E+00  9.78960335E-01  2.45586514E+00  1.31896484E+00  1.03900425E-01 -2.04698622E-01  0.00000000E+00
 1  1.05009997E+00  5.87499980E-03  0.00000000E+00  1.86191297E+00  9.79141951E-01  5.81016578E-03  0.00000000E+00  9.79159176E-01  2.45567942E+00  1.31890130E+00  1.02407806E-01 -2.04698622E-01  0.00000000E+00
 1  1.05009997E+00  6.12499984E-03  0.00000000E+00  1.86186171E+00  9.79339361E-01  6.05034549E-03  0.00000000E+00  9.79358077E-01  2.45549345E+00  1.31883764E+00  1.00915179E-01 -2.04698622E-01  0.00000000E+00
 1  1.05009997E+00  6.37499988E-03  0.00000000E+00  1.86181056E+00  9.79536831E-01  6.29052473E-03  0.00000000E+00  9.79557037E-01  2.45530748E+00  1.31877410E+00  9.94225591E-02 -2.04698622E-01  0.00000000E+00
 1  1.05009997E+00  6.62499992E-03  0.00000000E+00  1.86175942E+00  9.79734242E-01  6.53070398E-03  0.00000000E+00  9.79755998E-01  2.45512152E+00  1.31871045E+00  9.79299322E-02 -2.04698622E-01  0.00000000E+00
 1  1.05009997E+00  6.87499996E-03  0.00000000E+00  1.86153340E+00  9.79472101E-01  6.74909260E-03  0.00000000E+00  9.79495347E-01  2.45484328E+00  1.31872106E+00  9.60263535E-02 -1.04366255E+00  0.00000000E+00
 1  1.05009997E+00  7.12500000E-03  0.00000000E+00  1.86127257E+00  9.79117990E-01  6.96312264E-03  0.00000000E+00  9.79142785E-01  2.45454645E+00  1.31874645E+00  9.40405875E-02 -1.04366255E+00  0.00000000E+00
 1  1.05009997E+00  7.37500004E-03  0.00000000E+00  1.86101162E+00  9.78763938E-01  7.17715267E-03  0.00000000E+00  9.78790283E-01  2.45424986E+00  1.31877184E+00  9.20548216E-02 -1.04366255E+00  0.00000000E+00
 1  1.05009997E+00  7.62500009E-03  0.00000000E+00  1.86075068E+00  9.78409886E-01  7.39118271E-03  0.00000000E+00  9.78437781E-01  2.45395303E+00  1.31879735E+00  9.00690556E-02 -1.04366255E+00  0.00000000E+00
 1  1.05009997E+00  7.87500013E-03  0.00000000E+00  1.86048973E+00  9.78055775E-01  7.60521321E-03  0.00000000E+00  9.78085339E-01  2.45365620E+00  1.31882274E+00  8.80832896E-02 -1.04366255E+00  0.00000000E+00
 1  1.05009997E+00  8.12499970E-03  0.00000000E+00  1.86022890E+00  9.77701724E-01  7.81924278E-03  0.00000000E+00  9.77732956E-01  2.45335937E+00  1.31884813E+00  8.60975236E-02 -1.04366255E+00  0.00000000E+00
 1  1.05009997E+00  8.37500021E-03  0.00000000E+00  1.85996795E+00  9.77347612E-01  8.03327374E-03  0.00000000E+00  9.77380633E-01  2.45306253E+00  1.31887352E+00  8.41117576E-02 -1.04366255E+00  0.00000000E+00
 1  1.05009997E+00  8.62499978E-03  0.00000000E+00  1.85970700E+00  9.76993561E-01  8.24730378E-03  0.00000000E+00  9.77028370E-01  2.45276570E+00  1.31889892E+00  8.21259916E-02 -1.04366255E+00  0.00000000E+00
 1  1.05009997E+00  8.87500029E-03  0.00000000E+00  1.85944617E+00  9.76639509E-01  8.46133381E-03  0.00000000E+00  9.76676106E-01  2.45246887E+00  1.31892443E+00  8.01402256E-02 -1.04366255E+00  0.00000000E+00
 1  1.05009997E+00  9.12499987E-03  0.00000000E+00  1.85918522E+00  9.76285398E-01  8.67536385E-03  0.00000000E+00  9.76323962E-01  2.45217204E+00  1.31894982E+00  7.81544596E-02 -1.04366255E+00  0.00000000E+00
 1  1.05009997E+00  9.37500037E-03  0.00000000E+00  1.85892427E+00  9.75931346E-01  8.88939388E-03  0.00000000E+00  9.75971818E-01  2.45187497E+00  1.31897521E+00  7.61686936E-02 -1.04366255E+00  0.00000000E+00
 1  1.05009997E+00  9.62499995E-03  0.00000000E+00  1.85866332E+00  9.75577235E-01  9.10342392E-03  0.00000000E+00  9.75619733E-01  2.45157814E+00  1.31900060E+00  7.41829276E-02 -1.04366255E+00  0.00000000E+00
 1  1.05009997E+00  9.87500045E-03  0.00000000E+00  1.85840249E+00  9.75223184E-01  9.31745395E-03  0.00000000E+00  9.75267708E-01  2.45128131E+00  1.31902599E+00  7.21971616E-02 -1.04366255E+00  0.00000000E+00
 1  1.05009997E+00  1.01250000E-02  0.00000000E+00  1.85816216E+00  9.75012958E-01  9.51602217E-03  0.00000000E+00  9.75059390E-01  2.45093608E+00  1.31901097E+00  7.02994913E-02 -8.79005075E-01  0.00000000E+00
 1  1.05009997E+00  1.03749996E-02  0.00000000E+00  1.85794234E+00  9.74946499E-01  9.69912857E-03  0.00000000E+00  9.74994779E-01  2.45054293E+00  1.31895518E+00  6.84899017E-02 -8.79005075E-01  0.00000000E+00
 1  1.05009997E+00  1.06250001E-02  0.00000000E+00  1.85772264E+00  9.74880099E-01  9.88223497E-03  0.00000000E+00  9.74930227E-01  2.45014954E+00  1.31889951E+00  6.66803196E-02 -8.79005075E-01  0.00000000E+00
 1  1.05009997E+00  1.08749997E-02  0.00000000E+00  1.85750282E+00  9.74813700E-01  1.00653414E-02  0.00000000E+00  9.74865675E-01  2.44975638E+00  1.31884384E+00  6.48707300E-02 -8.79005075E-01  0.00000000E+00
 1  1.05009997E+00  1.11250002E-02  0.00000000E+00  1.85728312E+00  9.74747300E-01  1.02484478E-02  0.00000000E+00  9.74801183E-01  2.44936299E+00  1.31878817E+00  6.30611479E-02 -8.79005075E-01  0.00000000E+00
 1  1.05009997E+00  1.13749998E-02  0.00000000E+00  1.85706341E+00  9.74680901E-01  1.04315551E-02  0.00000000E+00  9.74736691E-01  2.44896984E+00  1.31873250E+00  6.12515584E-02 -8.79005075E-01  0.00000000E+00
 1  1.05009997E+00  1.16250003E-02  0.00000000E+00  1.85684359E+00  9.74614441E-01  1.06146615E-02  0.00000000E+00  9.74672258E-01  2.44857669E+00  1.31867683E+00  5.94419725E-02 -8.79005075E-01  0.00000000E+00
 1  1.05009997E+00  1.18749999E-02  0.00000000E+00  1.85662389E+00  9.74548042E-01  1.07977679E-02  0.00000000E+00  9.74607885E-01  2.44818354E+00  1.31862116E+00  5.76323867E-02 -8.79005075E-01  0.00000000E+00
 1  1.05009997E+00  1.21250004E-02  0.00000000E+00  1.85640407E+00  9.74481642E-01  1.09808743E-02  0.00000000E+00  9.74543512E-01  2.44779038E+00  1.31856549E+00  5.58228008E-02 -8.79005075E-01  0.00000000E+00
 1  1.05009997E+00  1.23749999E-02  0.00000000E+00  1.85618436E+00  9.74415243E-01  1.11639807E-02  0.00000000E+00  9.74479198E-01  2.44739747E+00  1.31850982E+00  5.40132150E-02 -8.79005075E-01  0.00000000E+00
 1  1.05009997E+00  1.26250004E-02  0.00000000E+00  1.85596466E+00  9.74348843E-01  1.13470871E-02  0.00000000E+00  9.74414885E-01  2.44700432E+00  1.31845415E+00  5.22036292E-02 -8.79005075E-01  0.00000000E+00
 1  1.05009997E+00  1.28750000E-02  0.00000000E+00  1.85574484E+00  9.74282444E-01  1.15301935E-02  0.00000000E+00  9.74350631E-01  2.44661117E+00  1.31839848E+00  5.03940433E-02 -8.79005075E-01  0.00000000E+00
 1  1.05009997E+00  1.31249996E-02  0.00000000E+00  1.85552514E+00  9.74215984E-01  1.17132999E-02  0.00000000E+00  9.74286437E-01  2.44621825E+00  1.31834280E+00  4.85844575E-02 -8.79005075E-01  0.00000000E+00
 1  1.05009997E+00  1.33750001E-02  0.00000000E+00  1.85529959E+00  9.74149883E-01  1.18915839E-02  0.00000000E+00  9.74222481E-01  2.44581246E+00  1.31828439E+00  4.68860418E-02 -1.01667225E+00  0.00000000E+00
 1  1.05009997E+00  1.36249997E-02  0.00000000E+00  1.85504544E+00  9.74085271E-01  1.20457569E-02  0.00000000E+00  9.74159718E-01  2.44534349E+00  1.31821215E+00  4.57434654E-02 -1.01667225E+00  0.00000000E+00
 1  1.05009997E+00  1.38750002E-02  0.00000000E+00  1.85479128E+00  9.74020600E-01  1.21999308E-02  0.00000000E+00  9.74097013E-01  2.44487453E+00  1.31813991E+00  4.46008928E-02 -1.01667225E+00  0.00000000E+00
 1  1.05009997E+00  1.41249998E-02  0.00000000E+00  1.85453713E+00  9.73955989E-01  1.23541038E-02  0.00000000E+00  9.74034369E-01  2.44440556E+00  1.31806779E+00  4.34583165E-02 -1.01667225E+00  0.00000000E+00
 1  1.05009997E+00  1.43750003E-02  0.00000000E+00  1.85428298E+00  9.73891377E-01  1.25082768E-02  0.00000000E+00  9.73971665E-01  2.44393659E+00  1.31799555E+00  4.23157439E-02 -1.01667225E+00  0.00000000E+00
 1  1.05009997E+00  1.46249998E-02  0.00000000E+00  1.85402882E+00  9.73826706E-01  1.26624508E-02  0.00000000E+00  9.73909080E-01  2.44346762E+00  1.31792331E+00  4.11731713E-02 -1.01667225E+00  0.00000000E+00
 1  1.05009997E+00  1.48750003E-02  0.00000000E+00  1.85377467E+00  9.73762095E-01  1.28166238E-02  0.00000000E+00  9.73846436E-01  2.44299889E+00  1.31785107E+00  4.00305949E-02 -1.01667225E+00  0.00000000E+00
 1  1.05009997E+00  1.51249999E-02  0.00000000E+00  1.85352039E+00  9.73697484E-01  1.29707977E-02  0.00000000E+00  9.73783851E-01  2.44253016E+00  1.31777883E+00  3.88880223E-02 -1.01667225E+00  0.00000000E+00
 1  1.05009997E+00  1.53750004E-02  0.00000000E+00  1.85326624E+00  9.73632812E-01  1.31249707E-02  0.00000000E+00  9.73721266E-01  2.44206119E+00  1.31770658E+00  3.77454460E-02 -1.01667225E+00  0.00000000E+00
 1  1.05009997E+00  1.56250000E-02  0.00000000E+00  1.85301208E+00  9.73568201E-01  1.32791437E-02  0.00000000E+00  9.73658741E-01  2.44159245E+00  1.31763446E+00  3.66028734E-02 -1.01667225E+00  0.00000000E+00
 1  1.05009997E+00  1.58750005E-02  0.00000000E+00  1.85275793E+00  9.73503590E-01  1.34333177E-02  0.00000000E+00  9.73596275E-01  2.44112372E+00  1.31756222E+00  3.54603007E-02 -1.01667225E+00  0.00000000E+00
 1  1.05009997E+00  1.61249992E-02  0.00000000E+00  1.85250378E+00  9.73438919E-01  1.35874907E-02  0.00000000E+00  9.73533750E-01  2.44065523E+00  1.31748998E+00  3.43177244E-02 -1.01667225E+00  0.00000000E+00
 1  1.05009997E+00  1.63749997E-02  0.00000000E+00  1.85224962E+00  9.73374307E-01  1.37416637E-02  0.00000000E+00  9.73471284E-01  2.44018650E+00  1.31741774E+00  3.31751518E-02 -1.01667225E+00  0.00000000E+00
 1  1.05009997E+00  1.66250002E-02  0.00000000E+00  1.85199547E+00  9.73309696E-01  1.38958376E-02  0.00000000E+00  9.73408878E-01  2.43971801E+00  1.31734550E+00  3.20325755E-02 -1.01667225E+00  0.00000000E+00
 1  1.05009997E+00  1.68750007E-02  0.00000000E+00  1.85171509E+00  9.73238468E-01  1.40358834E-02  0.00000000E+00  9.73339677E-01  2.43920255E+00  1.31726670E+00  3.16599086E-02 -1.14234734E+00  0.00000000E+00
 1  1.05009997E+00  1.71249993E-02  0.00000000E+00  1.85142946E+00  9.73165929E-01  1.41731035E-02  0.00000000E+00  9.73269105E-01  2.43867803E+00  1.31718659E+00  3.14412229E-02 -1.14234734E+00  0.00000000E+00
 1  1.05009997E+00  1.73749998E-02  0.00000000E+00  1.85114396E+00  9.73093390E-01  1.43103236E-02  0.00000000E+00  9.73198593E-01  2.43815351E+00  1.31710637E+00  3.12225390E-02 -1.14234734E+00  0.00000000E+00
 1  1.05009997E+00  1.76250003E-02  0.00000000E+00  1.85085833E+00  9.73020852E-01  1.44475438E-02  0.00000000E+00  9.73128080E-01  2.43762898E+00  1.31702626E+00  3.10038533E-02 -1.14234734E+00  0.00000000E+00
 1  1.05009997E+00  1.78750008E-02  0.00000000E+00  1.85057271E+00  9.72948313E-01  1.45847639E-02  0.00000000E+00  9.73057628E-01  2.43710446E+00  1.31694603E+00  3.07851657E-02 -1.14234734E+00  0.00000000E+00
 1  1.05009997E+00  1.81249995E-02  0.00000000E+00  1.85028720E+00  9.72875774E-01  1.47219840E-02  0.00000000E+00  9.72987115E-01  2.43658018E+00  1.31686592E+00  3.05664800E-02 -1.14234734E+00  0.00000000E+00
 1  1.05009997E+00  1.83750000E-02  0.00000000E+00  1.85000157E+00  9.72803235E-01  1.48592042E-02  0.00000000E+00  9.72916663E-01  2.43605566E+00  1.31678581E+00  3.03477943E-02 -1.14234734E+00  0.00000000E+00
 1  1.05009997E+00  1.86250005E-02  0.00000000E+00  1.84971595E+00  9.72730696E-01  1.49964243E-02  0.00000000E+00  9.72846270E-01  2.43553138E+00  1.31670558E+00  3.01291086E-02 -1.14234734E+00  0.00000000E+00
 1  1.05009997E+00  1.88749991E-02  0.00000000E+00  1.84943044E+00  9.72658157E-01  1.51336435E-02  0.00000000E+00  9.72775877E-01  2.43500710E+00  1.31662548E+00  2.99104229E-02 -1.14234734E+00  0.00000000E+00
 1  1.05009997E+00  1.91249996E-02  0.00000000E+00  1.84914482E+00  9.72585618E-01  1.52708637E-02  0.00000000E+00  9.72705483E-01  2.43448281E+00  1.31654525E+00  2.96917371E-02 -1.14234734E+00  0.00000000E+00
 1  1.05009997E+00  1.93750001E-02  0.00000000E+00  1.84885919E+00  9.72513080E-01  1.54080838E-02  0.00000000E+00  9.72635090E-01  2.43395877E+00  1.31646514E+00  2.94730514E-02 -1.14234734E+00  0.00000000E+00
 1  1.05009997E+00  1.96250007E-02  0.00000000E+00  1.84857368E+00  9.72440541E-01  1.55453039E-02  0.00000000E+00  9.72564757E-01  2.43343449E+00  1.31638503E+00  2.92543657E-02 -1.14234734E+00  0.00000000E+00
 1  1.05009997E+00  1.98749993E-02  0.00000000E+00  1.84828806E+00  9.72368002E-01  1.56825241E-02  0.00000000E+00  9.72494423E-01  2.43291044E+00  1.31630480E+00  2.90356800E-02 -1.14234734E+00  0.00000000E+00
 1  1.05009997E+00  2.01249998E-02  0.00000000E+00  1.84799743E+00  9.72296238E-01  1.58161279E-02  0.00000000E+00  9.72424865E-01  2.43237615E+00  1.31622267E+00  2.88160909E-02 -1.18260419E+00  0.00000000E+00
 1  1.05009997E+00  2.03750003E-02  0.00000000E+00  1.84770179E+00  9.72225249E-01  1.59461144E-02  0.00000000E+00  9.72356021E-01  2.43183136E+00  1.31613839E+00  2.85955966E-02 -1.18260419E+00  0.00000000E+00
 1  1.05009997E+00  2.06250008E-02  0.00000000E+00  1.84740615E+00  9.72154319E-01  1.60760991E-02  0.00000000E+00  9.72287238E-01  2.43128657E+00  1.31605422E+00  2.83751041E-02 -1.18260419E+00  0.00000000E+00
 1  1.05009997E+00  2.08749995E-02  0.00000000E+00  1.84711051E+00  9.72083330E-01  1.62060857E-02  0.00000000E+00  9.72218454E-01  2.43074179E+00  1.31596994E+00  2.81546116E-02 -1.18260419E+00  0.00000000E+00
 1  1.05009997E+00  2.11250000E-02  0.00000000E+00  1.84681487E+00  9.72012401E-01  1.63360722E-02  0.00000000E+00  9.72149670E-01  2.43019724E+00  1.31588578E+00  2.79341172E-02 -1.18260419E+00  0.00000000E+00
 1  1.05009997E+00  2.13750005E-02  0.00000000E+00  1.84651911E+00  9.71941471E-01  1.64660588E-02  0.00000000E+00  9.72080886E-01  2.42965269E+00  1.31580150E+00  2.77136248E-02 -1.18260419E+00  0.00000000E+00
 1  1.05009997E+00  2.16249991E-02  0.00000000E+00  1.84622347E+00  9.71870482E-01  1.65960453E-02  0.00000000E+00  9.72012162E-01  2.42910814E+00  1.31571734E+00  2.74931323E-02 -1.18260419E+00  0.00000000E+00
 1  1.05009997E+00  2.18749996E-02  0.00000000E+00  1.84592783E+00  9.71799552E-01  1.67260300E-02  0.00000000E+00  9.71943438E-01  2.42856383E+00  1.31563306E+00  2.72726379E-02 -1.18260419E+00  0.00000000E+00
 1  1.05009997E+00  2.21250001E-02  0.00000000E+00  1.84563220E+00  9.71728563E-01  1.68560166E-02  0.00000000E+00  9.71874774E-01  2.42801929E+00  1.31554878E+00  2.70521455E-02 -1.18260419E+00  0.00000000E+00
 1  1.05009997E+00  2.23750006E-02  0.00000000E+00  1.84533656E+00  9.71657634E-01  1.69860031E-02  0.00000000E+00  9.71806049E-01  2.42747498E+00  1.31546462E+00  2.68316530E-02 -1.18260419E+00  0.00000000E+00
 1  1.05009997E+00  2.26249993E-02  0.00000000E+00  1.84504092E+00  9.71586645E-01  1.71159897E-02  0.00000000E+00  9.71737385E-01  2.42693067E+00  1.31538033E+00  2.66111586E-02 -1.18260419E+00  0.00000000E+00
 1  1.05009997E+00  2.28749998E-02  0.00000000E+00  1.84474528E+00  9.71515715E-01  1.72459763E-02  0.00000000E+00  9.71668780E-01  2.42638636E+00  1.31529617E+00  2.63906661E-02 -1.18260419E+00  0.00000000E+00
 1  1.05009997E+00  2.31250003E-02  0.00000000E+00  1.84444964E+00  9.71444726E-01  1.73759628E-02  0.00000000E+00  9.71600115E-01  2.42584205E+00  1.31521189E+00  2.61701718E-02 -1.18260419E+00  0.00000000E+00
 1  1.05009997E+00  2.33750008E-02  0.00000000E+00  1.84416020E+00  9.71374810E-01  1.75023936E-02  0.00000000E+00  9.71532464E-01  2.42530942E+00  1.31512940E+00  2.55236644E-02 -1.03402889E+00  0.00000000E+00
 1  1.05009997E+00  2.36249994E-02  0.00000000E+00  1.84390163E+00  9.71310019E-01  1.76110584E-02  0.00000000E+00  9.71469641E-01  2.42483354E+00  1.31505573E+00  2.27470864E-02 -1.03402889E+00  0.00000000E+00
 1  1.05009997E+00  2.38750000E-02  0.00000000E+00  1.84364319E+00  9.71245229E-01  1.77197214E-02  0.00000000E+00  9.71406877E-01  2.42435765E+00  1.31498206E+00  1.99705064E-02 -1.03402889E+00  0.00000000E+00
 1  1.05009997E+00  2.41250005E-02  0.00000000E+00  1.84338462E+00  9.71180439E-01  1.78283844E-02  0.00000000E+00  9.71344054E-01  2.42388177E+00  1.31490827E+00  1.71939265E-02 -1.03402889E+00  0.00000000E+00
 1  1.05009997E+00  2.43749991E-02  0.00000000E+00  1.84312618E+00  9.71115649E-01  1.79370474E-02  0.00000000E+00  9.71281290E-01  2.42340589E+00  1.31483459E+00  1.44173475E-02 -1.03402889E+00  0.00000000E+00
 1  1.05009997E+00  2.46249996E-02  0.00000000E+00  1.84286761E+00  9.71050858E-01  1.80457104E-02  0.00000000E+00  9.71218526E-01  2.42293024E+00  1.31476080E+00  1.16407685E-02 -1.03402889E+00  0.00000000E+00
 1  1.05009997E+00  2.48750001E-02  0.00000000E+00  1.84260905E+00  9.70986068E-01  1.81543734E-02  0.00000000E+00  9.71155763E-01  2.42245436E+00  1.31468713E+00  8.86418950E-03 -1.03402889E+00  0.00000000E+00
 1  1.05009997E+00  2.51250006E-02  0.00000000E+00  1.84235060E+00  9.70921278E-01  1.82630364E-02  0.00000000E+00  9.71092999E-01  2.42197871E+00  1.31461334E+00  6.08761003E-03 -1.03402889E+00  0.00000000E+00
 1  1.05009997E+00  2.53749993E-02  0.00000000E+00  1.84209204E+00  9.70856488E-01  1.83717012E-02  0.00000000E+00  9.71030295E-01  2.42150307E+00  1.31453967E+00  3.31103080E-03 -1.03402889E+00  0.00000000E+00
 1  1.05009997E+00  2.56249998E-02  0.00000000E+00  1.84183359E+00  9.70791698E-01  1.84803642E-02  0.00000000E+00  9.70967591E-01  2.42102742E+00  1.31446588E+00  5.34451450E-04 -1.03402889E+00  0.00000000E+00
 1  1.05009997E+00  2.58750003E-02  0.00000000E+00  1.84157503E+00  9.70726907E-01  1.85890272E-02  0.00000000E+00  9.70904887E-01  2.42055202E+00  1.31439221E+00 -2.24212790E-03 -1.03402889E+00  0.00000000E+00
 1  1.05009997E+00  2.61250008E-02  0.00000000E+00  1.84131658E+00  9.70662117E-01  1.86976902E-02  0.00000000E+00  9.70842183E-01  2.42007637E+00  1.31431854E+00 -5.01870736E-03 -1.03402889E+00  0.00000000E+00
 1  1.05009997E+00  2.63749994E-02  0.00000000E+00  1.84105802E+00  9.70597327E-01  1.88063532E-02  0.00000000E+00  9.70779479E-01  2.41960096E+00  1.31424475E+00 -7.79528636E-03 -1.03402889E+00  0.00000000E+00
 1  1.05009997E+00  2.66249999E-02  0.00000000E+00  1.84079957E+00  9.70532537E-01  1.89150162E-02  0.00000000E+00  9.70716834E-01  2.41912556E+00  1.31417108E+00 -1.05718654E-02 -1.03402889E+00  0.00000000E+00
 1  1.05009997E+00  2.68750004E-02  0.00000000E+00  1.84065962E+00  9.70483661E-01  1.89525243E-02  0.00000000E+00  9.70668733E-01  2.41886806E+00  1.31413114E+00 -1.84545554E-02 -4.64713216E-01  0.00000000E+00
 1  1.05009997E+00  2.71249991E-02  0.00000000E+00  1.84054351E+00  9.70438063E-01  1.89758018E-02  0.00000000E+00  9.70623553E-01  2.41865444E+00  1.31409788E+00 -2.73584668E-02 -4.64713216E-01  0.00000000E+00
 1  1.05009997E+00  2.73749996E-02  0.00000000E+00  1.84042728E+00  9.70392406E-01  1.89990792E-02  0.00000000E+00  9.70578372E-01  2.41844058E+00  1.31406474E+00 -3.62623781E-02 -4.64713216E-01  0.00000000E+00
 1  1.05009997E+00  2.76250001E-02  0.00000000E+00  1.84031117E+00  9.70346749E-01  1.90223567E-02  0.00000000E+00  9.70533192E-01  2.41822696E+00  1.31403160E+00 -4.51662913E-02 -4.64713216E-01  0.00000000E+00
 1  1.05009997E+00  2.78750006E-02  0.00000000E+00  1.84019494E+00  9.70301092E-01  1.90456342E-02  0.00000000E+00  9.70488012E-01  2.41801310E+00  1.31399834E+00 -5.40702008E-02 -4.64713216E-01  0.00000000E+00
 1  1.05009997E+00  2.81249993E-02  0.00000000E+00  1.84007871E+00  9.70255435E-01  1.90689117E-02  0.00000000E+00  9.70442832E-01  2.41779947E+00  1.31396520E+00 -6.29741102E-02 -4.64713216E-01  0.00000000E+00
 1  1.05009997E+00  2.83749998E-02  0.00000000E+00  1.83996260E+00  9.70209837E-01  1.90921891E-02  0.00000000E+00  9.70397651E-01  2.41758585E+00  1.31393206E+00 -7.18780234E-02 -4.64713216E-01  0.00000000E+00
 1  1.05009997E+00  2.86250003E-02  0.00000000E+00  1.83984637E+00  9.70164180E-01  1.91154666E-02  0.00000000E+00  9.70352471E-01  2.41737199E+00  1.31389880E+00 -8.07819366E-02 -4.64713216E-01  0.00000000E+00
 1  1.05009997E+00  2.88750008E-02  0.00000000E+00  1.83973026E+00  9.70118523E-01  1.91387441E-02  0.00000000E+00  9.70307291E-01  2.41715837E+00  1.31386566E+00 -8.96858498E-02 -4.64713216E-01  0.00000000E+00
 1  1.05009997E+00  2.91249994E-02  0.00000000E+00  1.83961403E+00  9.70072865E-01  1.91620216E-02  0.00000000E+00  9.70262110E-01  2.41694474E+00  1.31383252E+00 -9.85897556E-02 -4.64713216E-01  0.00000000E+00
 1  1.05009997E+00  2.93749999E-02  0.00000000E+00  1.83949792E+00  9.70027208E-01  1.91852991E-02  0.00000000E+00  9.70216930E-01  2.41673112E+00  1.31379926E+00 -1.07493669E-01 -4.64713216E-01  0.00000000E+00
 1  1.05009997E+00  2.96250004E-02  0.00000000E+00  1.83938169E+00  9.69981551E-01  1.92085765E-02  0.00000000E+00  9.70171750E-01  2.41651726E+00  1.31376612E+00 -1.16397582E-01 -4.64713216E-01  0.00000000E+00
 1  1.05009997E+00  2.98749991E-02  0.00000000E+00  1.83926547E+00  9.69935954E-01  1.92318540E-02  0.00000000E+00  9.70126569E-01  2.41630363E+00  1.31373298E+00 -1.25301495E-01 -4.64713216E-01  0.00000000E+00
 1  1.05009997E+00  3.01249996E-02  0.00000000E+00  1.83929777E+00  9.69908237E-01  1.91572402E-02  0.00000000E+00  9.70097423E-01  2.41636300E+00  1.31374216E+00 -1.38063118E-01  7.22437680E-01  0.00000000E+00
 1  1.05009997E+00  3.03750001E-02  0.00000000E+00  1.83947837E+00  9.69898462E-01  1.89847350E-02  0.00000000E+00  9.70084250E-01  2.41669512E+00  1.31379366E+00 -1.54682443E-01  7.22437680E-01  0.00000000E+00
 1  1.05009997E+00  3.06250006E-02  0.00000000E+00  1.83965898E+00  9.69888687E-01  1.88122299E-02  0.00000000E+00  9.70071137E-01  2.41702724E+00  1.31384528E+00 -1.71301767E-01  7.22437680E-01  0.00000000E+00
 1  1.05009997E+00  3.08749992E-02  0.00000000E+00  1.83983958E+00  9.69878912E-01  1.86397247E-02  0.00000000E+00  9.70058024E-01  2.41735935E+00  1.31389678E+00 -1.87921092E-01  7.22437680E-01  0.00000000E+00
 1  1.05009997E+00  3.11249997E-02  0.00000000E+00  1.84002018E+00  9.69869137E-01  1.84672195E-02  0.00000000E+00  9.70044971E-01  2.41769147E+00  1.31394839E+00 -2.04540417E-01  7.22437680E-01  0.00000000E+00
 1  1.05009997E+00  3.13749984E-02  0.00000000E+00  1.84020078E+00  9.69859362E-01  1.82947144E-02  0.00000000E+00  9.70031917E-01  2.41802359E+00  1.31399989E+00 -2.21159756E-01  7.22437680E-01  0.00000000E+00
 1  1.05009997E+00  3.16249989E-02  0.00000000E+00  1.84038138E+00  9.69849586E-01  1.81222092E-02  0.00000000E+00  9.70018923E-01  2.41835594E+00  1.31405151E+00 -2.37779081E-01  7.22437680E-01  0.00000000E+00
 1  1.05009997E+00  3.18749994E-02  0.00000000E+00  1.84056199E+00  9.69839811E-01  1.79497041E-02  0.00000000E+00  9.70005929E-01  2.41868806E+00  1.31410301E+00 -2.54398406E-01  7.22437680E-01  0.00000000E+00
 1  1.05009997E+00  3.21249999E-02  0.00000000E+00  1.84074259E+00  9.69830036E-01  1.77771989E-02  0.00000000E+00  9.69992995E-01  2.41902018E+00  1.31415451E+00 -2.71017730E-01  7.22437680E-01  0.00000000E+00
 1  1.05009997E+00  3.23750004E-02  0.00000000E+00  1.84092319E+00  9.69820321E-01  1.76046938E-02  0.00000000E+00  9.69980061E-01  2.41935253E+00  1.31420612E+00 -2.87637055E-01  7.22437680E-01  0.00000000E+00
 1  1.05009997E+00  3.26250009E-02  0.00000000E+00  1.84110379E+00  9.69810545E-01  1.74321886E-02  0.00000000E+00  9.69967186E-01  2.41968489E+00  1.31425762E+00 -3.04256380E-01  7.22437680E-01  0.00000000E+00
 1  1.05009997E+00  3.28750014E-02  0.00000000E+00  1.84128439E+00  9.69800770E-01  1.72596835E-02  0.00000000E+00  9.69954312E-01  2.42001700E+00  1.31430924E+00 -3.20875704E-01  7.22437680E-01  0.00000000E+00
 1  1.05009997E+00  3.31249982E-02  0.00000000E+00  1.84146500E+00  9.69790995E-01  1.70871783E-02  0.00000000E+00  9.69941497E-01  2.42034936E+00  1.31436074E+00 -3.37495029E-01  7.22437680E-01  0.00000000E+00
 1  1.05009997E+00  3.33749987E-02  0.00000000E+00  1.84171414E+00  9.69789207E-01  1.68673694E-02  0.00000000E+00  9.69935894E-01  2.42080784E+00  1.31443179E+00 -3.54665011E-01  2.36639547E+00  0.00000000E+00
 1  1.05009997E+00  3.36249992E-02  0.00000000E+00  1.84230578E+00  9.69827354E-01  1.64110381E-02  0.00000000E+00  9.69966233E-01  2.42189622E+00  1.31460059E+00 -3.74588192E-01  2.36639547E+00  0.00000000E+00
 1  1.05009997E+00  3.38749997E-02  0.00000000E+00  1.84289730E+00  9.69865561E-01  1.59547068E-02  0.00000000E+00  9.69996750E-01  2.42298484E+00  1.31476927E+00 -3.94511372E-01  2.36639547E+00  0.00000000E+00
 1  1.05009997E+00  3.41250002E-02  0.00000000E+00  1.84348893E+00  9.69903708E-01  1.54983765E-02  0.00000000E+00  9.70027506E-01  2.42407346E+00  1.31493795E+00 -4.14434522E-01  2.36639547E+00  0.00000000E+00
 1  1.05009997E+00  3.43750007E-02  0.00000000E+00  1.84408057E+00  9.69941854E-01  1.50420452E-02  0.00000000E+00  9.70058501E-01  2.42516255E+00  1.31510663E+00 -4.34357703E-01  2.36639547E+00  0.00000000E+00
 1  1.05009997E+00  3.46250013E-02  0.00000000E+00  1.84467220E+00  9.69980001E-01  1.45857148E-02  0.00000000E+00  9.70089674E-01  2.42625165E+00  1.31527531E+00 -4.54280883E-01  2.36639547E+00  0.00000000E+00
 1  1.05009997E+00  3.48750018E-02  0.00000000E+00  1.84526372E+00  9.70018208E-01  1.41293835E-02  0.00000000E+00  9.70121086E-01  2.42734122E+00  1.31544399E+00 -4.74204063E-01  2.36639547E+00  0.00000000E+00