TITLE     = "Translation of CGNS file config_final_grid00.cgns"
VARIABLES = "CoordinateX"
"CoordinateY"
"CoordinateZ"
"P_norm"
"q_norm"
DATASETAUXDATA Common.DensityVar="9"
DATASETAUXDATA Common.MachNumberVar="9"
DATASETAUXDATA Common.PressureVar="4"
DATASETAUXDATA Common.SteadyState="TRUE"
DATASETAUXDATA Common.TemperatureVar="8"
DATASETAUXDATA Common.TurbulentViscosityVar="15"
DATASETAUXDATA Common.UVar="5"
DATASETAUXDATA Common.VectorVarsAreVelocity="TRUE"
DATASETAUXDATA Common.VVar="6"
DATASETAUXDATA Common.WVar="7"
ZONE T="Slice: Y=-1E-06"
 STRANDID=10, SOLUTIONTIME=-1
 I=512, J=1, K=1, ZONETYPE=Ordered
 DATAPACKING=BLOCK
 DT=(DOUBLE DOUBLE DOUBLE DOUBLE DOUBLE )
 1.801442416E-02 1.801634466E-02 1.801954444E-02 1.802402188E-02 1.802977467E-02
 1.803679985E-02 1.804509383E-02 1.805465235E-02 1.806547050E-02 1.807754275E-02
 1.809086290E-02 1.810542412E-02 1.812121897E-02 1.813823935E-02 1.815647654E-02
 1.817592124E-02 1.819656348E-02 1.821839274E-02 1.824139786E-02 1.826556710E-02
 1.829088814E-02 1.831734809E-02 1.834493344E-02 1.837363016E-02 1.840342365E-02
 1.843429876E-02 1.846623978E-02 1.849923048E-02 1.853325403E-02 1.856829310E-02
 1.860432963E-02 1.864134340E-02 1.867930819E-02 1.871821260E-02 1.875803802E-02
 1.879876395E-02 1.884036942E-02 1.888283300E-02 1.892613284E-02 1.897024672E-02
 1.901515194E-02 1.906082546E-02 1.910724382E-02 1.915438320E-02 1.920221944E-02
 1.925072798E-02 1.929988396E-02 1.934966215E-02 1.940003705E-02 1.945098283E-02
 1.950247335E-02 1.955448228E-02 1.960698290E-02 1.965994834E-02 1.971335147E-02
 1.976716490E-02 1.982136111E-02 1.987591231E-02 1.993079059E-02 1.998596788E-02
 2.004141593E-02 2.009710652E-02 2.015301120E-02 2.020909926E-02 2.027602689E-02
 2.034876339E-02 2.042781116E-02 2.051371572E-02 2.060706939E-02 2.070851518E-02
 2.081875108E-02 2.093853468E-02 2.106868810E-02 2.121010340E-02 2.136374834E-02
 2.153067264E-02 2.171201468E-02 2.190900875E-02 2.212299281E-02 2.235541685E-02
 2.260785183E-02 2.288199928E-02 2.317970157E-02 2.350295288E-02 2.385391084E-02
 2.423490902E-02 2.464847014E-02 2.509732001E-02 2.558440237E-02 2.611289445E-02
 2.668622327E-02 2.730808280E-02 2.798245172E-02 2.871361183E-02 2.950616703E-02
 3.036506272E-02 3.129560543E-02 3.230348257E-02 3.339478199E-02 3.457601102E-02
 3.585411489E-02 3.723649363E-02 3.873101742E-02 4.034603973E-02 4.209040726E-02
 4.397346588E-02 4.600506339E-02 4.819554420E-02 5.055573946E-02 5.309694925E-02
 5.583091384E-02 5.876977605E-02 6.192603169E-02 6.531246557E-02 6.894207424E-02
 7.282796974E-02 7.698326945E-02 8.142096425E-02 8.615376899E-02 9.119395262E-02
 9.655314946E-02 1.022421487E-01 1.082706698E-01 1.146471223E-01 1.213783504E-01
 1.284693738E-01 1.359231259E-01 1.437401931E-01 1.519185699E-01 1.604534307E-01
 1.693369347E-01 1.785580621E-01 1.881025035E-01 1.979526051E-01 2.080873703E-01
 2.184825381E-01 2.291107293E-01 2.399416697E-01 2.509424843E-01 2.620780616E-01
 2.733114777E-01 2.846044722E-01 2.959179623E-01 3.072125806E-01 3.184492217E-01
 3.295895808E-01 3.405966692E-01 3.514352917E-01 3.620724734E-01 3.724778263E-01
 3.826238469E-01 3.924861416E-01 4.020435778E-01 4.112783618E-01 4.201760475E-01
 4.287254819E-01 4.369186949E-01 4.447507402E-01 4.522195003E-01 4.593254596E-01
 4.661866527E-01 4.730478458E-01 4.799090389E-01 4.867702321E-01 4.936314252E-01
 5.004926183E-01 5.073538115E-01 5.142150046E-01 5.210761977E-01 5.279373909E-01
 5.347985840E-01 5.416597771E-01 5.485209702E-01 5.553821634E-01 5.622433565E-01
 5.691045496E-01 5.759657428E-01 5.828269359E-01 5.896881290E-01 5.965493221E-01
 6.034105153E-01 6.102717084E-01 6.171329015E-01 6.239940947E-01 6.308552878E-01
 6.377164809E-01 6.445776741E-01 6.514388672E-01 6.583000603E-01 6.651612534E-01
 6.720224466E-01 6.788836397E-01 6.857448328E-01 6.926060260E-01 6.994672191E-01
 7.063284122E-01 7.131896054E-01 7.200507985E-01 7.269119916E-01 7.337731847E-01
 7.406343779E-01 7.474955710E-01 7.543567641E-01 7.612179573E-01 7.680791504E-01
 7.749403435E-01 7.818015366E-01 7.886627298E-01 7.955239229E-01 8.023851160E-01
 8.092463092E-01 8.161075023E-01 8.229686954E-01 8.298298886E-01 8.366910817E-01
 8.435522748E-01 8.504134679E-01 8.572746611E-01 8.641358542E-01 8.709970473E-01
 8.778582405E-01 8.847194336E-01 8.915806267E-01 8.984418199E-01 9.053030130E-01
 9.121642061E-01 9.190253992E-01 9.258865924E-01 9.327477855E-01 9.396089786E-01
 9.464701718E-01 9.533313649E-01 9.601925580E-01 9.670537511E-01 9.739149443E-01
 9.807761374E-01 9.876373305E-01 9.944985237E-01 1.001359717E+00 1.008220910E+00
 1.015082103E+00 1.021943296E+00 1.028804489E+00 1.035665682E+00 1.042526876E+00
 1.049388069E+00 1.056249262E+00 1.063110455E+00 1.069971648E+00 1.076832841E+00
 1.083694034E+00 1.090555227E+00 1.097416421E+00 1.104277614E+00 1.111138807E+00
 1.118000000E+00 1.126349634E+00 1.134564577E+00 1.142647079E+00 1.150599356E+00
 1.158423585E+00 1.166121911E+00 1.173696441E+00 1.181149252E+00 1.188482384E+00
 1.195697848E+00 1.202797619E+00 1.209783643E+00 1.216657833E+00 1.223422073E+00
 1.230078216E+00 1.236628085E+00 1.243073475E+00 1.249416151E+00 1.255657852E+00
 1.261800286E+00 1.267845138E+00 1.273794062E+00 1.279648689E+00 1.285410622E+00
 1.291081440E+00 1.296662697E+00 1.302155921E+00 1.307562618E+00 1.312884269E+00
 1.318122331E+00 1.323278240E+00 1.328353407E+00 1.333349225E+00 1.338267060E+00
 1.343108261E+00 1.347874153E+00 1.352566043E+00 1.357185215E+00 1.361732936E+00
 1.366210450E+00 1.370618985E+00 1.374959749E+00 1.379233929E+00 1.383442699E+00
 1.387587210E+00 1.391668598E+00 1.395687981E+00 1.399646460E+00 1.403545120E+00
 1.407385029E+00 1.411167238E+00 1.414892784E+00 1.418562688E+00 1.422177954E+00
 1.425739574E+00 1.429248523E+00 1.432705762E+00 1.436112239E+00 1.439468886E+00
 1.442776623E+00 1.446036357E+00 1.449248981E+00 1.452415374E+00 1.455536404E+00
 1.458612926E+00 1.461645783E+00 1.464635805E+00 1.467583813E+00 1.470490613E+00
 1.473357002E+00 1.476183765E+00 1.478971677E+00 1.481721501E+00 1.484433990E+00
 1.487109889E+00 1.489749929E+00 1.492354834E+00 1.494925318E+00 1.497462084E+00
 1.499965829E+00 1.502437237E+00 1.504876987E+00 1.507285745E+00 1.509664173E+00
 1.512012921E+00 1.514332634E+00 1.516623946E+00 1.518887485E+00 1.521123872E+00
 1.523333720E+00 1.525517632E+00 1.527676209E+00 1.529810040E+00 1.531919712E+00
 1.534005802E+00 1.536068881E+00 1.538109513E+00 1.540128260E+00 1.542125673E+00
 1.544102300E+00 1.546058682E+00 1.547995355E+00 1.549912851E+00 1.551811693E+00
 1.553692402E+00 1.555555494E+00 1.557401479E+00 1.559230863E+00 1.561044146E+00
 1.562841826E+00 1.564624395E+00 1.566392341E+00 1.568146149E+00 1.569886300E+00
 1.571613269E+00 1.573327530E+00 1.575029553E+00 1.576719804E+00 1.578398746E+00
 1.580066839E+00 1.581724540E+00 1.583372304E+00 1.585010580E+00 1.586639819E+00
 1.588260467E+00 1.589872968E+00 1.591477762E+00 1.593075291E+00 1.594665991E+00
 1.596250299E+00 1.597828649E+00 1.599401472E+00 1.600969201E+00 1.602532263E+00
 1.604091088E+00 1.605646103E+00 1.607197733E+00 1.608746404E+00 1.610292540E+00
 1.611836564E+00 1.613378900E+00 1.614919970E+00 1.616460196E+00 1.618000000E+00
 1.619296250E+00 1.620592500E+00 1.621888750E+00 1.623185000E+00 1.624481250E+00
 1.625777500E+00 1.627073750E+00 1.628370000E+00 1.629666250E+00 1.630962500E+00
 1.632258750E+00 1.633555000E+00 1.634851250E+00 1.636147500E+00 1.637443750E+00
 1.638740000E+00 1.640036250E+00 1.641332500E+00 1.642628750E+00 1.643925000E+00
 1.645221250E+00 1.646517500E+00 1.647813750E+00 1.649110000E+00 1.650406250E+00
 1.651702500E+00 1.652998750E+00 1.654295000E+00 1.655591250E+00 1.656887500E+00
 1.658183750E+00 1.659480000E+00 1.660776250E+00 1.662072500E+00 1.663368750E+00
 1.664665000E+00 1.665961250E+00 1.667257500E+00 1.668553750E+00 1.669850000E+00
 1.671146250E+00 1.672442500E+00 1.673738750E+00 1.675035000E+00 1.676331250E+00
 1.677627500E+00 1.678923750E+00 1.680220000E+00 1.681516250E+00 1.682812500E+00
 1.684108750E+00 1.685405000E+00 1.686701250E+00 1.687997500E+00 1.689293750E+00
 1.690590000E+00 1.691886250E+00 1.693182500E+00 1.694478750E+00 1.695775000E+00
 1.697071250E+00 1.698367500E+00 1.699663750E+00 1.700960000E+00 1.702256250E+00
 1.703552500E+00 1.704848750E+00 1.706145000E+00 1.707441250E+00 1.708737500E+00
 1.710033750E+00 1.711330000E+00 1.712626250E+00 1.713922500E+00 1.715218750E+00
 1.716515000E+00 1.717811250E+00 1.719107500E+00 1.720403750E+00 1.721700000E+00
 1.723262500E+00 1.724825000E+00 1.726387500E+00 1.727950000E+00 1.729512500E+00
 1.731075000E+00 1.732637500E+00 1.734200000E+00 1.735762500E+00 1.737325000E+00
 1.738887500E+00 1.740450000E+00 1.742012500E+00 1.743575000E+00 1.745137500E+00
 1.746700000E+00 1.748262500E+00 1.749825000E+00 1.751387500E+00 1.752950000E+00
 1.754512500E+00 1.756075000E+00 1.757637500E+00 1.759200000E+00 1.760762500E+00
 1.762325000E+00 1.763887500E+00 1.765450000E+00 1.767012500E+00 1.768575000E+00
 1.770137500E+00 1.771700000E+00
 -1.000000000E-06 -1.000000000E-06 -1.000000000E-06 -1.000000000E-06 -1.000000000E-06
 -1.000000000E-06 -1.000000000E-06 -1.000000000E-06 -1.000000000E-06 -1.000000000E-06
 -1.000000000E-06 -1.000000000E-06 -1.000000000E-06 -1.000000000E-06 -1.000000000E-06
 -1.000000000E-06 -1.000000000E-06 -1.000000000E-06 -1.000000000E-06 -1.000000000E-06
 -1.000000000E-06 -1.000000000E-06 -1.000000000E-06 -1.000000000E-06 -1.000000000E-06
 -1.000000000E-06 -1.000000000E-06 -1.000000000E-06 -1.000000000E-06 -1.000000000E-06
 -1.000000000E-06 -1.000000000E-06 -1.000000000E-06 -1.000000000E-06 -1.000000000E-06
 -1.000000000E-06 -1.000000000E-06 -1.000000000E-06 -1.000000000E-06 -1.000000000E-06
 -1.000000000E-06 -1.000000000E-06 -1.000000000E-06 -1.000000000E-06 -1.000000000E-06
 -1.000000000E-06 -1.000000000E-06 -1.000000000E-06 -1.000000000E-06 -1.000000000E-06
 -1.000000000E-06 -1.000000000E-06 -1.000000000E-06 -1.000000000E-06 -1.000000000E-06
 -1.000000000E-06 -1.000000000E-06 -1.000000000E-06 -1.000000000E-06 -1.000000000E-06
 -1.000000000E-06 -1.000000000E-06 -1.000000000E-06 -1.000000000E-06 -1.000000000E-06
 -1.000000000E-06 -1.000000000E-06 -1.000000000E-06 -1.000000000E-06 -1.000000000E-06
 -1.000000000E-06 -1.000000000E-06 -1.000000000E-06 -1.000000000E-06 -1.000000000E-06
 -1.000000000E-06 -1.000000000E-06 -1.000000000E-06 -1.000000000E-06 -1.000000000E-06
 -1.000000000E-06 -1.000000000E-06 -1.000000000E-06 -1.000000000E-06 -1.000000000E-06
 -1.000000000E-06 -1.000000000E-06 -1.000000000E-06 -1.000000000E-06 -1.000000000E-06
 -1.000000000E-06 -1.000000000E-06 -1.000000000E-06 -1.000000000E-06 -1.000000000E-06
 -1.000000000E-06 -1.000000000E-06 -1.000000000E-06 -1.000000000E-06 -1.000000000E-06
 -1.000000000E-06 -1.000000000E-06 -1.000000000E-06 -1.000000000E-06 -1.000000000E-06
 -1.000000000E-06 -1.000000000E-06 -1.000000000E-06 -1.000000000E-06 -1.000000000E-06
 -1.000000000E-06 -1.000000000E-06 -1.000000000E-06 -1.000000000E-06 -1.000000000E-06
 -1.000000000E-06 -1.000000000E-06 -1.000000000E-06 -1.000000000E-06 -1.000000000E-06
 -1.000000000E-06 -1.000000000E-06 -1.000000000E-06 -1.000000000E-06 -1.000000000E-06
 -1.000000000E-06 -1.000000000E-06 -1.000000000E-06 -1.000000000E-06 -1.000000000E-06
 -1.000000000E-06 -1.000000000E-06 -1.000000000E-06 -1.000000000E-06 -1.000000000E-06
 -1.000000000E-06 -1.000000000E-06 -1.000000000E-06 -1.000000000E-06 -1.000000000E-06
 -1.000000000E-06 -1.000000000E-06 -1.000000000E-06 -1.000000000E-06 -1.000000000E-06
 -1.000000000E-06 -1.000000000E-06 -1.000000000E-06 -1.000000000E-06 -1.000000000E-06
 -1.000000000E-06 -1.000000000E-06 -1.000000000E-06 -1.000000000E-06 -1.000000000E-06
 -1.000000000E-06 -1.000000000E-06 -1.000000000E-06 -1.000000000E-06 -1.000000000E-06
 -1.000000000E-06 -1.000000000E-06 -1.000000000E-06 -1.000000000E-06 -1.000000000E-06
 -1.000000000E-06 -1.000000000E-06 -1.000000000E-06 -1.000000000E-06 -1.000000000E-06
 -1.000000000E-06 -1.000000000E-06 -1.000000000E-06 -1.000000000E-06 -1.000000000E-06
 -1.000000000E-06 -1.000000000E-06 -1.000000000E-06 -1.000000000E-06 -1.000000000E-06
 -1.000000000E-06 -1.000000000E-06 -1.000000000E-06 -1.000000000E-06 -1.000000000E-06
 -1.000000000E-06 -1.000000000E-06 -1.000000000E-06 -1.000000000E-06 -1.000000000E-06
 -1.000000000E-06 -1.000000000E-06 -1.000000000E-06 -1.000000000E-06 -1.000000000E-06
 -1.000000000E-06 -1.000000000E-06 -1.000000000E-06 -1.000000000E-06 -1.000000000E-06
 -1.000000000E-06 -1.000000000E-06 -1.000000000E-06 -1.000000000E-06 -1.000000000E-06
 -1.000000000E-06 -1.000000000E-06 -1.000000000E-06 -1.000000000E-06 -1.000000000E-06
 -1.000000000E-06 -1.000000000E-06 -1.000000000E-06 -1.000000000E-06 -1.000000000E-06
 -1.000000000E-06 -1.000000000E-06 -1.000000000E-06 -1.000000000E-06 -1.000000000E-06
 -1.000000000E-06 -1.000000000E-06 -1.000000000E-06 -1.000000000E-06 -1.000000000E-06
 -1.000000000E-06 -1.000000000E-06 -1.000000000E-06 -1.000000000E-06 -1.000000000E-06
 -1.000000000E-06 -1.000000000E-06 -1.000000000E-06 -1.000000000E-06 -1.000000000E-06
 -1.000000000E-06 -1.000000000E-06 -1.000000000E-06 -1.000000000E-06 -1.000000000E-06
 -1.000000000E-06 -1.000000000E-06 -1.000000000E-06 -1.000000000E-06 -1.000000000E-06
 -1.000000000E-06 -1.000000000E-06 -1.000000000E-06 -1.000000000E-06 -1.000000000E-06
 -1.000000000E-06 -1.000000000E-06 -1.000000000E-06 -1.000000000E-06 -1.000000000E-06
 -1.000000000E-06 -1.000000000E-06 -1.000000000E-06 -1.000000000E-06 -1.000000000E-06
 -1.000000000E-06 -1.000000000E-06 -1.000000000E-06 -1.000000000E-06 -1.000000000E-06
 -1.000000000E-06 -1.000000000E-06 -1.000000000E-06 -1.000000000E-06 -1.000000000E-06
 -1.000000000E-06 -1.000000000E-06 -1.000000000E-06 -1.000000000E-06 -1.000000000E-06
 -1.000000000E-06 -1.000000000E-06 -1.000000000E-06 -1.000000000E-06 -1.000000000E-06
 -1.000000000E-06 -1.000000000E-06 -1.000000000E-06 -1.000000000E-06 -1.000000000E-06
 -1.000000000E-06 -1.000000000E-06 -1.000000000E-06 -1.000000000E-06 -1.000000000E-06
 -1.000000000E-06 -1.000000000E-06 -1.000000000E-06 -1.000000000E-06 -1.000000000E-06
 -1.000000000E-06 -1.000000000E-06 -1.000000000E-06 -1.000000000E-06 -1.000000000E-06
 -1.000000000E-06 -1.000000000E-06 -1.000000000E-06 -1.000000000E-06 -1.000000000E-06
 -1.000000000E-06 -1.000000000E-06 -1.000000000E-06 -1.000000000E-06 -1.000000000E-06
 -1.000000000E-06 -1.000000000E-06 -1.000000000E-06 -1.000000000E-06 -1.000000000E-06
 -1.000000000E-06 -1.000000000E-06 -1.000000000E-06 -1.000000000E-06 -1.000000000E-06
 -1.000000000E-06 -1.000000000E-06 -1.000000000E-06 -1.000000000E-06 -1.000000000E-06
 -1.000000000E-06 -1.000000000E-06 -1.000000000E-06 -1.000000000E-06 -1.000000000E-06
 -1.000000000E-06 -1.000000000E-06 -1.000000000E-06 -1.000000000E-06 -1.000000000E-06
 -1.000000000E-06 -1.000000000E-06 -1.000000000E-06 -1.000000000E-06 -1.000000000E-06
 -1.000000000E-06 -1.000000000E-06 -1.000000000E-06 -1.000000000E-06 -1.000000000E-06
 -1.000000000E-06 -1.000000000E-06 -1.000000000E-06 -1.000000000E-06 -1.000000000E-06
 -1.000000000E-06 -1.000000000E-06 -1.000000000E-06 -1.000000000E-06 -1.000000000E-06
 -1.000000000E-06 -1.000000000E-06 -1.000000000E-06 -1.000000000E-06 -1.000000000E-06
 -1.000000000E-06 -1.000000000E-06 -1.000000000E-06 -1.000000000E-06 -1.000000000E-06
 -1.000000000E-06 -1.000000000E-06 -1.000000000E-06 -1.000000000E-06 -1.000000000E-06
 -1.000000000E-06 -1.000000000E-06 -1.000000000E-06 -1.000000000E-06 -1.000000000E-06
 -1.000000000E-06 -1.000000000E-06 -1.000000000E-06 -1.000000000E-06 -1.000000000E-06
 -1.000000000E-06 -1.000000000E-06 -1.000000000E-06 -1.000000000E-06 -1.000000000E-06
 -1.000000000E-06 -1.000000000E-06 -1.000000000E-06 -1.000000000E-06 -1.000000000E-06
 -1.000000000E-06 -1.000000000E-06 -1.000000000E-06 -1.000000000E-06 -1.000000000E-06
 -1.000000000E-06 -1.000000000E-06 -1.000000000E-06 -1.000000000E-06 -1.000000000E-06
 -1.000000000E-06 -1.000000000E-06 -1.000000000E-06 -1.000000000E-06 -1.000000000E-06
 -1.000000000E-06 -1.000000000E-06 -1.000000000E-06 -1.000000000E-06 -1.000000000E-06
 -1.000000000E-06 -1.000000000E-06 -1.000000000E-06 -1.000000000E-06 -1.000000000E-06
 -1.000000000E-06 -1.000000000E-06 -1.000000000E-06 -1.000000000E-06 -1.000000000E-06
 -1.000000000E-06 -1.000000000E-06 -1.000000000E-06 -1.000000000E-06 -1.000000000E-06
 -1.000000000E-06 -1.000000000E-06 -1.000000000E-06 -1.000000000E-06 -1.000000000E-06
 -1.000000000E-06 -1.000000000E-06 -1.000000000E-06 -1.000000000E-06 -1.000000000E-06
 -1.000000000E-06 -1.000000000E-06 -1.000000000E-06 -1.000000000E-06 -1.000000000E-06
 -1.000000000E-06 -1.000000000E-06 -1.000000000E-06 -1.000000000E-06 -1.000000000E-06
 -1.000000000E-06 -1.000000000E-06 -1.000000000E-06 -1.000000000E-06 -1.000000000E-06
 -1.000000000E-06 -1.000000000E-06 -1.000000000E-06 -1.000000000E-06 -1.000000000E-06
 -1.000000000E-06 -1.000000000E-06 -1.000000000E-06 -1.000000000E-06 -1.000000000E-06
 -1.000000000E-06 -1.000000000E-06 -1.000000000E-06 -1.000000000E-06 -1.000000000E-06
 -1.000000000E-06 -1.000000000E-06 -1.000000000E-06 -1.000000000E-06 -1.000000000E-06
 -1.000000000E-06 -1.000000000E-06 -1.000000000E-06 -1.000000000E-06 -1.000000000E-06
 -1.000000000E-06 -1.000000000E-06 -1.000000000E-06 -1.000000000E-06 -1.000000000E-06
 -1.000000000E-06 -1.000000000E-06 -1.000000000E-06 -1.000000000E-06 -1.000000000E-06
 -1.000000000E-06 -1.000000000E-06 -1.000000000E-06 -1.000000000E-06 -1.000000000E-06
 -1.000000000E-06 -1.000000000E-06 -1.000000000E-06 -1.000000000E-06 -1.000000000E-06
 -1.000000000E-06 -1.000000000E-06 -1.000000000E-06 -1.000000000E-06 -1.000000000E-06
 -1.000000000E-06 -1.000000000E-06 -1.000000000E-06 -1.000000000E-06 -1.000000000E-06
 -1.000000000E-06 -1.000000000E-06 -1.000000000E-06 -1.000000000E-06 -1.000000000E-06
 -1.000000000E-06 -1.000000000E-06
 -5.657715513E-05 -1.131266014E-04 -1.696179761E-04 -2.260223830E-04 -2.823109349E-04
 -3.384547755E-04 -3.944251848E-04 -4.501934571E-04 -5.057310409E-04 -5.610094800E-04
 -6.160004947E-04 -6.706758897E-04 -7.250076971E-04 -7.789681029E-04 -8.325295011E-04
 -8.856644833E-04 -9.383458800E-04 -9.905467607E-04 -1.042240435E-03 -1.093400489E-03
 -1.144000776E-03 -1.194015459E-03 -1.243418962E-03 -1.292186068E-03 -1.340291850E-03
 -1.387711752E-03 -1.434421532E-03 -1.480397319E-03 -1.525615534E-03 -1.570052998E-03
 -1.613686701E-03 -1.656492132E-03 -1.698439560E-03 -1.739517204E-03 -1.779705342E-03
 -1.818983105E-03 -1.857330130E-03 -1.894726542E-03 -1.931153003E-03 -1.966590719E-03
 -2.001021388E-03 -2.034427286E-03 -2.066791207E-03 -2.098096498E-03 -2.128327074E-03
 -2.157467379E-03 -2.185502452E-03 -2.212417880E-03 -2.238199849E-03 -2.262835123E-03
 -2.286311045E-03 -2.308615585E-03 -2.329737277E-03 -2.349665295E-03 -2.368389415E-03
 -2.385900021E-03 -2.402188142E-03 -2.417245412E-03 -2.431064112E-03 -2.443637155E-03
 -2.454958085E-03 -2.465021108E-03 -2.473821048E-03 -2.481353107E-03 -2.489569375E-03
 -2.498498761E-03 -2.508202941E-03 -2.518748885E-03 -2.530209306E-03 -2.542663144E-03
 -2.556196088E-03 -2.570901139E-03 -2.586879226E-03 -2.604239861E-03 -2.623101849E-03
 -2.643594057E-03 -2.665856238E-03 -2.690039916E-03 -2.716309345E-03 -2.744842529E-03
 -2.775832326E-03 -2.809487623E-03 -2.846034593E-03 -2.885718049E-03 -2.928802871E-03
 -2.975575535E-03 -3.026345738E-03 -3.081448112E-03 -3.141244039E-03 -3.206123567E-03
 -3.276507410E-03 -3.352849052E-03 -3.435636930E-03 -3.525396691E-03 -3.622693528E-03
 -3.728134554E-03 -3.842371218E-03 -3.966101727E-03 -4.100073444E-03 -4.245085235E-03
 -4.401989718E-03 -4.571695347E-03 -4.755168292E-03 -4.953434057E-03 -5.167578690E-03
 -5.398749525E-03 -5.648155511E-03 -5.917066566E-03 -6.206812355E-03 -6.518780120E-03
 -6.854411136E-03 -7.215196097E-03 -7.602669033E-03 -8.018399451E-03 -8.463982854E-03
 -8.941028920E-03 -9.451147985E-03 -9.995934856E-03 -1.057695045E-02 -1.119570095E-02
 -1.185361462E-02 -1.255201598E-02 -1.329209823E-02 -1.407489374E-02 -1.490124276E-02
 -1.577176148E-02 -1.668681005E-02 -1.764646045E-02 -1.865046647E-02 -1.969823571E-02
 -2.078880560E-02 -2.192082332E-02 -2.309253219E-02 -2.430176497E-02 -2.554594405E-02
 -2.682209105E-02 -2.812684483E-02 -2.945648879E-02 -3.080698711E-02 -3.217402936E-02
 -3.355308265E-02 -3.493944999E-02 -3.632833344E-02 -3.771490012E-02 -3.909434931E-02
 -4.046197860E-02 -4.181324712E-02 -4.314383417E-02 -4.444969164E-02 -4.572708900E-02
 -4.697264983E-02 -4.818337947E-02 -4.935668363E-02 -5.049037788E-02 -5.158268877E-02
 -5.263224711E-02 -5.363807448E-02 -5.459956365E-02 -5.551645465E-02 -5.638880696E-02
 -5.723111092E-02 -5.807341489E-02 -5.891571885E-02 -5.975802282E-02 -6.060032679E-02
 -6.144263075E-02 -6.228493472E-02 -6.312723869E-02 -6.396954265E-02 -6.481184662E-02
 -6.565415059E-02 -6.649645455E-02 -6.733875852E-02 -6.818106248E-02 -6.902336645E-02
 -6.986567042E-02 -7.070797438E-02 -7.155027835E-02 -7.239258232E-02 -7.323488628E-02
 -7.407719025E-02 -7.491949422E-02 -7.576179818E-02 -7.660410215E-02 -7.744640611E-02
 -7.828871008E-02 -7.913101405E-02 -7.997331801E-02 -8.081562198E-02 -8.165792595E-02
 -8.250022991E-02 -8.334253388E-02 -8.418483785E-02 -8.502714181E-02 -8.586944578E-02
 -8.671174974E-02 -8.755405371E-02 -8.839635768E-02 -8.923866164E-02 -9.008096561E-02
 -9.092326958E-02 -9.176557354E-02 -9.260787751E-02 -9.345018148E-02 -9.429248544E-02
 -9.513478941E-02 -9.597709337E-02 -9.681939734E-02 -9.766170131E-02 -9.850400527E-02
 -9.934630924E-02 -1.001886132E-01 -1.010309172E-01 -1.018732211E-01 -1.027155251E-01
 -1.035578291E-01 -1.044001330E-01 -1.052424370E-01 -1.060847410E-01 -1.069270449E-01
 -1.077693489E-01 -1.086116529E-01 -1.094539568E-01 -1.102962608E-01 -1.111385648E-01
 -1.119808687E-01 -1.128231727E-01 -1.136654767E-01 -1.145077806E-01 -1.153500846E-01
 -1.161923886E-01 -1.170346925E-01 -1.178769965E-01 -1.187193005E-01 -1.195616044E-01
 -1.204039084E-01 -1.212462124E-01 -1.220885163E-01 -1.229308203E-01 -1.237731243E-01
 -1.246154282E-01 -1.254577322E-01 -1.263000362E-01 -1.271423401E-01 -1.279846441E-01
 -1.288269481E-01 -1.296692520E-01 -1.305115560E-01 -1.313538600E-01 -1.321961639E-01
 -1.330384679E-01 -1.338807719E-01 -1.347230758E-01 -1.355653798E-01 -1.364076838E-01
 -1.372499877E-01 -1.372499877E-01 -1.372499877E-01 -1.372499877E-01 -1.372499877E-01
 -1.372499877E-01 -1.372499877E-01 -1.372499877E-01 -1.372499877E-01 -1.372499877E-01
 -1.372499877E-01 -1.372499877E-01 -1.372499877E-01 -1.372499877E-01 -1.372499877E-01
 -1.372499877E-01 -1.372499877E-01 -1.372499877E-01 -1.372499877E-01 -1.372499877E-01
 -1.372499877E-01 -1.372499877E-01 -1.372499877E-01 -1.372499877E-01 -1.372499877E-01
 -1.372499877E-01 -1.372499877E-01 -1.372499877E-01 -1.372499877E-01 -1.372499877E-01
 -1.372499877E-01 -1.372499877E-01 -1.372499877E-01 -1.372499877E-01 -1.372499877E-01
 -1.372499877E-01 -1.372499877E-01 -1.372499877E-01 -1.372499877E-01 -1.372499877E-01
 -1.372499877E-01 -1.372499877E-01 -1.372499877E-01 -1.372499877E-01 -1.372499877E-01
 -1.372499877E-01 -1.372499877E-01 -1.372499877E-01 -1.372499877E-01 -1.372499877E-01
 -1.372499877E-01 -1.372499877E-01 -1.372499877E-01 -1.372499877E-01 -1.372499877E-01
 -1.372499877E-01 -1.372499877E-01 -1.372499877E-01 -1.372499877E-01 -1.372499877E-01
 -1.372499877E-01 -1.372499877E-01 -1.372499877E-01 -1.372499877E-01 -1.372499877E-01
 -1.372499877E-01 -1.372499877E-01 -1.372499877E-01 -1.372499877E-01 -1.372499877E-01
 -1.372499877E-01 -1.372499877E-01 -1.372499877E-01 -1.372499877E-01 -1.372499877E-01
 -1.372499877E-01 -1.372499877E-01 -1.372499877E-01 -1.372499877E-01 -1.372499877E-01
 -1.372499877E-01 -1.372499877E-01 -1.372499877E-01 -1.372499877E-01 -1.372499877E-01
 -1.372499877E-01 -1.372499877E-01 -1.372499877E-01 -1.372499877E-01 -1.372499877E-01
 -1.372499877E-01 -1.372499877E-01 -1.372499877E-01 -1.372499877E-01 -1.372499877E-01
 -1.372499877E-01 -1.372499877E-01 -1.372499877E-01 -1.372499877E-01 -1.372499877E-01
 -1.372499877E-01 -1.372499877E-01 -1.372499877E-01 -1.372499877E-01 -1.372499877E-01
 -1.372499877E-01 -1.372499877E-01 -1.372499877E-01 -1.372499877E-01 -1.372499877E-01
 -1.372499877E-01 -1.372499877E-01 -1.372499877E-01 -1.372499877E-01 -1.372499877E-01
 -1.372499877E-01 -1.372499877E-01 -1.372499877E-01 -1.372499877E-01 -1.372499877E-01
 -1.372499877E-01 -1.372499877E-01 -1.372499877E-01 -1.372499877E-01 -1.372499877E-01
 -1.372499877E-01 -1.372499877E-01 -1.372499877E-01 -1.372499877E-01 -1.372499877E-01
 -1.372499877E-01 -1.372499877E-01 -1.372499877E-01 -1.372499877E-01 -1.372499877E-01
 -1.372499877E-01 -1.372499877E-01 -1.372499877E-01 -1.372499877E-01 -1.372499877E-01
 -1.372499877E-01 -1.372499877E-01 -1.372499877E-01 -1.372499877E-01 -1.372499877E-01
 -1.380918627E-01 -1.389337377E-01 -1.397756127E-01 -1.406174877E-01 -1.414593627E-01
 -1.423012377E-01 -1.431431127E-01 -1.439849877E-01 -1.448268627E-01 -1.456687377E-01
 -1.465106127E-01 -1.473524877E-01 -1.481943627E-01 -1.490362377E-01 -1.498781127E-01
 -1.507199877E-01 -1.515618627E-01 -1.524037377E-01 -1.532456127E-01 -1.540874877E-01
 -1.549293627E-01 -1.557712377E-01 -1.566131127E-01 -1.574549877E-01 -1.582968627E-01
 -1.591387377E-01 -1.599806127E-01 -1.608224877E-01 -1.616643627E-01 -1.625062377E-01
 -1.633481127E-01 -1.641899877E-01 -1.650318627E-01 -1.658737377E-01 -1.667156127E-01
 -1.675574877E-01 -1.683993627E-01 -1.692412377E-01 -1.700831127E-01 -1.709249877E-01
 -1.717668627E-01 -1.726087377E-01 -1.734506127E-01 -1.742924877E-01 -1.751343627E-01
 -1.759762377E-01 -1.768181127E-01 -1.776599877E-01 -1.785018627E-01 -1.793437377E-01
 -1.801856127E-01 -1.810274877E-01 -1.818693627E-01 -1.827112377E-01 -1.835531127E-01
 -1.843949877E-01 -1.852368627E-01 -1.860787377E-01 -1.869206127E-01 -1.877624877E-01
 -1.886043627E-01 -1.894462377E-01 -1.902881127E-01 -1.911299877E-01 -1.919718627E-01
 -1.928137377E-01 -1.936556127E-01 -1.944974877E-01 -1.953393627E-01 -1.961812377E-01
 -1.970231127E-01 -1.978649877E-01 -1.987068627E-01 -1.995487377E-01 -2.003906127E-01
 -2.012324877E-01 -2.020743627E-01 -2.029162377E-01 -2.037581127E-01 -2.045999877E-01
 -2.045999877E-01 -2.045999877E-01 -2.045999877E-01 -2.045999877E-01 -2.045999877E-01
 -2.045999877E-01 -2.045999877E-01 -2.045999877E-01 -2.045999877E-01 -2.045999877E-01
 -2.045999877E-01 -2.045999877E-01 -2.045999877E-01 -2.045999877E-01 -2.045999877E-01
 -2.045999877E-01 -2.045999877E-01 -2.045999877E-01 -2.045999877E-01 -2.045999877E-01
 -2.045999877E-01 -2.045999877E-01 -2.045999877E-01 -2.045999877E-01 -2.045999877E-01
 -2.045999877E-01 -2.045999877E-01 -2.045999877E-01 -2.045999877E-01 -2.045999877E-01
 -2.045999877E-01 -2.045999877E-01
 6.679212155E+01 6.688258053E+01 6.685669458E+01 6.672562035E+01 6.650080490E+01
 6.617803057E+01 6.574509081E+01 6.520912009E+01 6.459517325E+01 6.392885752E+01
 6.321703597E+01 6.245069795E+01 6.162311799E+01 6.073583630E+01 5.979438583E+01
 5.880105267E+01 5.774999922E+01 5.663973838E+01 5.547354175E+01 5.425362770E+01
 5.298439828E+01 5.167122679E+01 5.032001405E+01 4.893606885E+01 4.752620447E+01
 4.609882957E+01 4.465841254E+01 4.320518126E+01 4.175747377E+01 4.033525544E+01
 3.893264731E+01 3.746452933E+01 3.595752561E+01 3.448402127E+01 3.302100029E+01
 3.158841734E+01 3.019706384E+01 2.884192115E+01 2.750803704E+01 2.618476152E+01
 2.487824387E+01 2.360531791E+01 2.237220001E+01 2.117774875E+01 2.002602798E+01
 1.891719532E+01 1.785078368E+01 1.682548111E+01 1.583748536E+01 1.488550511E+01
 1.396969082E+01 1.309022130E+01 1.224916461E+01 1.144851133E+01 1.069116391E+01
 9.978452971E+00 9.308446484E+00 8.679983433E+00 8.089827805E+00 7.533342525E+00
 7.006853245E+00 6.508216165E+00 6.041840276E+00 5.678190112E+00 5.473521311E+00
 5.353772227E+00 5.250986598E+00 5.160192204E+00 5.079952749E+00 5.009401147E+00
 4.946389682E+00 4.887557477E+00 4.829194556E+00 4.769476406E+00 4.708563087E+00
 4.642167207E+00 4.564026682E+00 4.472987770E+00 4.372421173E+00 4.268160948E+00
 4.165858270E+00 4.066444329E+00 3.965841046E+00 3.861470187E+00 3.754710740E+00
 3.647015020E+00 3.539729925E+00 3.434897012E+00 3.335009341E+00 3.239297855E+00
 3.141914199E+00 3.038442237E+00 2.931365300E+00 2.831970731E+00 2.751420121E+00
 2.690885618E+00 2.643058446E+00 2.598197498E+00 2.550018080E+00 2.499360465E+00
 2.451245244E+00 2.410378958E+00 2.379412161E+00 2.357678970E+00 2.343112071E+00
 2.334537000E+00 2.333402224E+00 2.339826511E+00 2.352839013E+00 2.373116979E+00
 2.400314158E+00 2.433210567E+00 2.469986433E+00 2.509240493E+00 2.550567173E+00
 2.593946825E+00 2.639040102E+00 2.684982925E+00 2.730578765E+00 2.774602492E+00
 2.816051688E+00 2.854312491E+00 2.889134316E+00 2.920277378E+00 2.947540433E+00
 2.971194233E+00 2.991933126E+00 3.010171398E+00 3.025465756E+00 3.037463601E+00
 3.046711637E+00 3.053587170E+00 3.056747054E+00 3.056323789E+00 3.054734950E+00
 3.053939951E+00 3.054100351E+00 3.053792363E+00 3.052240194E+00 3.049757960E+00
 3.047300889E+00 3.045494543E+00 3.044368697E+00 3.043641548E+00 3.042936866E+00
 3.041984461E+00 3.040857009E+00 3.039916062E+00 3.039344685E+00 3.038891363E+00
 3.038162541E+00 3.037037651E+00 3.035920828E+00 3.035528024E+00 3.036177422E+00
 3.037579016E+00 3.038988242E+00 3.039473188E+00 3.038771797E+00 3.036867425E+00
 3.034177595E+00 3.031242254E+00 3.028355195E+00 3.026469435E+00 3.026250481E+00
 3.027595954E+00 3.030272121E+00 3.033977106E+00 3.038167071E+00 3.042164456E+00
 3.045388235E+00 3.047120171E+00 3.047043953E+00 3.045433388E+00 3.042305794E+00
 3.037704689E+00 3.032140401E+00 3.026405237E+00 3.021327004E+00 3.018381200E+00
 3.018294529E+00 3.020378758E+00 3.024008985E+00 3.028413054E+00 3.032572955E+00