# CoordinateSystem = xByUzL
# Units = ISS
VARIABLES = "Found","X","Y","Z","Density","VelocityX","VelocityY","VelocityZ","VelocityMag","Pressure","Temperature","DensityGradientX","DensityGradientY","DensityGradientZ"
ZONE T="t = 7.00000000E-01",I=4000,SOLUTIONTIME=7.00000000E-01
 1  5.20099998E-01  1.25000006E-04  0.00000000E+00  1.88045132E+00  9.21486139E-01 -3.90384160E-02  0.00000000E+00  9.22312737E-01  2.52298808E+00  1.34169281E+00  1.22820063E+01 -1.67515409E+00  0.00000000E+00
 1  5.20099998E-01  3.75000003E-04  0.00000000E+00  1.88003254E+00  9.22539175E-01 -3.81470770E-02  0.00000000E+00  9.23327565E-01  2.52174973E+00  1.34133303E+00  1.22823133E+01 -1.67515409E+00  0.00000000E+00
 1  5.20099998E-01  6.24999986E-04  0.00000000E+00  1.87961376E+00  9.23592269E-01 -3.72557379E-02  0.00000000E+00  9.24343348E-01  2.52051163E+00  1.34097314E+00  1.22826195E+01 -1.67515409E+00  0.00000000E+00
 1  5.20099998E-01  8.75000027E-04  0.00000000E+00  1.87919497E+00  9.24645305E-01 -3.63643989E-02  0.00000000E+00  9.25360084E-01  2.51927376E+00  1.34061337E+00  1.22829266E+01 -1.67515409E+00  0.00000000E+00
 1  5.20099998E-01  1.12499995E-03  0.00000000E+00  1.87877619E+00  9.25698340E-01 -3.54730599E-02  0.00000000E+00  9.26377773E-01  2.51803637E+00  1.34025359E+00  1.22832327E+01 -1.67515409E+00  0.00000000E+00
 1  5.20099998E-01  1.37499999E-03  0.00000000E+00  1.87835741E+00  9.26751375E-01 -3.45817246E-02  0.00000000E+00  9.27396357E-01  2.51679921E+00  1.33989370E+00  1.22835398E+01 -1.67515409E+00  0.00000000E+00
 1  5.20099998E-01  1.62500003E-03  0.00000000E+00  1.87793851E+00  9.27804410E-01 -3.36903855E-02  0.00000000E+00  9.28415895E-01  2.51556253E+00  1.33953393E+00  1.22838469E+01 -1.67515409E+00  0.00000000E+00
 1  5.20099998E-01  1.87499996E-03  0.00000000E+00  1.87751973E+00  9.28857446E-01 -3.27990465E-02  0.00000000E+00  9.29436386E-01  2.51432586E+00  1.33917415E+00  1.22841530E+01 -1.67515409E+00  0.00000000E+00
 1  5.20099998E-01  2.12500012E-03  0.00000000E+00  1.87710094E+00  9.29910481E-01 -3.19077075E-02  0.00000000E+00  9.30457771E-01  2.51308966E+00  1.33881426E+00  1.22844601E+01 -1.67515409E+00  0.00000000E+00
 1  5.20099998E-01  2.37499992E-03  0.00000000E+00  1.87668216E+00  9.30963516E-01 -3.10163666E-02  0.00000000E+00  9.31480050E-01  2.51185369E+00  1.33845448E+00  1.22847662E+01 -1.67515409E+00  0.00000000E+00
 1  5.20099998E-01  2.62499996E-03  0.00000000E+00  1.87626338E+00  9.32016551E-01 -3.01250275E-02  0.00000000E+00  9.32503283E-01  2.51061797E+00  1.33809459E+00  1.22850733E+01 -1.67515409E+00  0.00000000E+00
 1  5.20099998E-01  2.87500001E-03  0.00000000E+00  1.87584460E+00  9.33069646E-01 -2.92336885E-02  0.00000000E+00  9.33527470E-01  2.50938272E+00  1.33773482E+00  1.22853804E+01 -1.67515409E+00  0.00000000E+00
 1  5.20099998E-01  3.12500005E-03  0.00000000E+00  1.87542582E+00  9.34122682E-01 -2.83423513E-02  0.00000000E+00  9.34552550E-01  2.50814772E+00  1.33737504E+00  1.22856865E+01 -1.67515409E+00  0.00000000E+00
 1  5.20099998E-01  3.37500009E-03  0.00000000E+00  1.87500703E+00  9.35175717E-01 -2.74510123E-02  0.00000000E+00  9.35578525E-01  2.50691295E+00  1.33701515E+00  1.22859936E+01 -1.67515409E+00  0.00000000E+00
 1  5.20099998E-01  3.62499990E-03  0.00000000E+00  1.87458825E+00  9.36228752E-01 -2.65596732E-02  0.00000000E+00  9.36605394E-01  2.50567842E+00  1.33665538E+00  1.22862997E+01 -1.67515409E+00  0.00000000E+00
 1  5.20099998E-01  3.87499994E-03  0.00000000E+00  1.87416947E+00  9.37281787E-01 -2.56683342E-02  0.00000000E+00  9.37633216E-01  2.50444436E+00  1.33629560E+00  1.22866068E+01 -1.67515409E+00  0.00000000E+00
 1  5.20099998E-01  4.12499998E-03  0.00000000E+00  1.87375069E+00  9.38334823E-01 -2.47769952E-02  0.00000000E+00  9.38661873E-01  2.50321054E+00  1.33593571E+00  1.22869139E+01 -1.67515409E+00  0.00000000E+00
 1  5.20099998E-01  4.37500002E-03  0.00000000E+00  1.87333190E+00  9.39387858E-01 -2.38856561E-02  0.00000000E+00  9.39691484E-01  2.50197697E+00  1.33557594E+00  1.22872200E+01 -1.67515409E+00  0.00000000E+00
 1  5.20099998E-01  4.62500006E-03  0.00000000E+00  1.87291312E+00  9.40440893E-01 -2.29943171E-02  0.00000000E+00  9.40721989E-01  2.50074363E+00  1.33521605E+00  1.22875271E+01 -1.67515409E+00  0.00000000E+00
 1  5.20099998E-01  4.87500010E-03  0.00000000E+00  1.87249434E+00  9.41493928E-01 -2.21029781E-02  0.00000000E+00  9.41753387E-01  2.49951077E+00  1.33485627E+00  1.22878332E+01 -1.67515409E+00  0.00000000E+00
 1  5.20099998E-01  5.12500014E-03  0.00000000E+00  1.87207556E+00  9.42547023E-01 -2.12116390E-02  0.00000000E+00  9.42785621E-01  2.49827814E+00  1.33449650E+00  1.22881403E+01 -1.67515409E+00  0.00000000E+00
 1  5.20099998E-01  5.37500018E-03  0.00000000E+00  1.87165678E+00  9.43600059E-01 -2.03203000E-02  0.00000000E+00  9.43818808E-01  2.49704576E+00  1.33413661E+00  1.22884464E+01 -1.67515409E+00  0.00000000E+00
 1  5.20099998E-01  5.62500022E-03  0.00000000E+00  1.87123799E+00  9.44653094E-01 -1.94289610E-02  0.00000000E+00  9.44852889E-01  2.49581385E+00  1.33377683E+00  1.22887535E+01 -1.67515409E+00  0.00000000E+00
 1  5.20099998E-01  5.87499980E-03  0.00000000E+00  1.87081921E+00  9.45706129E-01 -1.85376219E-02  0.00000000E+00  9.45887804E-01  2.49458218E+00  1.33341706E+00  1.22890606E+01 -1.67515409E+00  0.00000000E+00
 1  5.20099998E-01  6.12499984E-03  0.00000000E+00  1.87040043E+00  9.46759164E-01 -1.76462829E-02  0.00000000E+00  9.46923614E-01  2.49335074E+00  1.33305717E+00  1.22893667E+01 -1.67515409E+00  0.00000000E+00
 1  5.20099998E-01  6.37499988E-03  0.00000000E+00  1.86998153E+00  9.47812200E-01 -1.67549439E-02  0.00000000E+00  9.47960317E-01  2.49211955E+00  1.33269739E+00  1.22896738E+01 -1.67515409E+00  0.00000000E+00
 1  5.20099998E-01  6.62499992E-03  0.00000000E+00  1.86956275E+00  9.48865235E-01 -1.58636067E-02  0.00000000E+00  9.48997855E-01  2.49088883E+00  1.33233750E+00  1.22899799E+01 -1.67515409E+00  0.00000000E+00
 1  5.20099998E-01  6.87499996E-03  0.00000000E+00  1.86914396E+00  9.49918270E-01 -1.49722667E-02  0.00000000E+00  9.50036287E-01  2.48965812E+00  1.33197773E+00  1.22902870E+01 -1.67515409E+00  0.00000000E+00
 1  5.20099998E-01  7.12500000E-03  0.00000000E+00  1.86872518E+00  9.50971305E-01 -1.40809277E-02  0.00000000E+00  9.51075554E-01  2.48842788E+00  1.33161795E+00  1.22905941E+01 -1.67515409E+00  0.00000000E+00
 1  5.20099998E-01  7.37500004E-03  0.00000000E+00  1.86830640E+00  9.52024400E-01 -1.31895887E-02  0.00000000E+00  9.52115715E-01  2.48719811E+00  1.33125806E+00  1.22909002E+01 -1.67515409E+00  0.00000000E+00
 1  5.20099998E-01  7.62500009E-03  0.00000000E+00  1.86788762E+00  9.53077435E-01 -1.22982506E-02  0.00000000E+00  9.53156769E-01  2.48596835E+00  1.33089828E+00  1.22912073E+01 -1.67515409E+00  0.00000000E+00
 1  5.20099998E-01  7.87500013E-03  0.00000000E+00  1.86746883E+00  9.54130471E-01 -1.14069115E-02  0.00000000E+00  9.54198658E-01  2.48473907E+00  1.33053851E+00  1.22915134E+01 -1.67515409E+00  0.00000000E+00
 1  5.20099998E-01  8.12499970E-03  0.00000000E+00  1.86705005E+00  9.55183506E-01 -1.05155725E-02  0.00000000E+00  9.55241382E-01  2.48351002E+00  1.33017862E+00  1.22918205E+01 -1.67515409E+00  0.00000000E+00
 1  5.20099998E-01  8.37500021E-03  0.00000000E+00  1.86663127E+00  9.56236541E-01 -9.62423347E-03  0.00000000E+00  9.56285000E-01  2.48228145E+00  1.32981884E+00  1.22921276E+01 -1.67515409E+00  0.00000000E+00
 1  5.20099998E-01  8.62499978E-03  0.00000000E+00  1.86621249E+00  9.57289577E-01 -8.73289444E-03  0.00000000E+00  9.57329392E-01  2.48105311E+00  1.32945895E+00  1.22924337E+01 -1.67515409E+00  0.00000000E+00
 1  5.20099998E-01  8.87500029E-03  0.00000000E+00  1.86579370E+00  9.58342612E-01 -7.84155540E-03  0.00000000E+00  9.58374679E-01  2.47982478E+00  1.32909918E+00  1.22927408E+01 -1.67515409E+00  0.00000000E+00
 1  5.20099998E-01  9.12499987E-03  0.00000000E+00  1.86537492E+00  9.59395647E-01 -6.95021683E-03  0.00000000E+00  9.59420860E-01  2.47859716E+00  1.32873940E+00  1.22930470E+01 -1.67515409E+00  0.00000000E+00
 1  5.20099998E-01  9.37500037E-03  0.00000000E+00  1.86495614E+00  9.60448682E-01 -6.05887780E-03  0.00000000E+00  9.60467815E-01  2.47736955E+00  1.32837951E+00  1.22933540E+01 -1.67515409E+00  0.00000000E+00
 1  5.20099998E-01  9.62499995E-03  0.00000000E+00  1.86453736E+00  9.61501777E-01 -5.16753877E-03  0.00000000E+00  9.61515665E-01  2.47614241E+00  1.32801974E+00  1.22936602E+01 -1.67515409E+00  0.00000000E+00
 1  5.20099998E-01  9.87500045E-03  0.00000000E+00  1.86411858E+00  9.62554812E-01 -4.27620020E-03  0.00000000E+00  9.62564290E-01  2.47491550E+00  1.32765996E+00  1.22939672E+01 -1.67515409E+00  0.00000000E+00
 1  5.20099998E-01  1.01250000E-02  0.00000000E+00  1.86399269E+00  9.63010907E-01 -3.92460125E-03  0.00000000E+00  9.63018894E-01  2.47442579E+00  1.32748687E+00  1.22867308E+01  6.68447912E-01  0.00000000E+00
 1  5.20099998E-01  1.03749996E-02  0.00000000E+00  1.86415982E+00  9.62870061E-01 -4.11274284E-03  0.00000000E+00  9.62878883E-01  2.47467351E+00  1.32750070E+00  1.22719507E+01  6.68447912E-01  0.00000000E+00
 1  5.20099998E-01  1.06250001E-02  0.00000000E+00  1.86432695E+00  9.62729275E-01 -4.30088490E-03  0.00000000E+00  9.62738872E-01  2.47492099E+00  1.32751441E+00  1.22571707E+01  6.68447912E-01  0.00000000E+00
 1  5.20099998E-01  1.08749997E-02  0.00000000E+00  1.86449409E+00  9.62588429E-01 -4.48902650E-03  0.00000000E+00  9.62598920E-01  2.47516847E+00  1.32752824E+00  1.22423906E+01  6.68447912E-01  0.00000000E+00
 1  5.20099998E-01  1.11250002E-02  0.00000000E+00  1.86466110E+00  9.62447643E-01 -4.67716809E-03  0.00000000E+00  9.62459028E-01  2.47541595E+00  1.32754195E+00  1.22276106E+01  6.68447912E-01  0.00000000E+00
 1  5.20099998E-01  1.13749998E-02  0.00000000E+00  1.86482823E+00  9.62306798E-01 -4.86530969E-03  0.00000000E+00  9.62319136E-01  2.47566366E+00  1.32755578E+00  1.22128305E+01  6.68447912E-01  0.00000000E+00
 1  5.20099998E-01  1.16250003E-02  0.00000000E+00  1.86499536E+00  9.62166011E-01 -5.05345128E-03  0.00000000E+00  9.62179244E-01  2.47591114E+00  1.32756960E+00  1.21980505E+01  6.68447912E-01  0.00000000E+00
 1  5.20099998E-01  1.18749999E-02  0.00000000E+00  1.86516249E+00  9.62025166E-01 -5.24159288E-03  0.00000000E+00  9.62039471E-01  2.47615862E+00  1.32758331E+00  1.21832705E+01  6.68447912E-01  0.00000000E+00
 1  5.20099998E-01  1.21250004E-02  0.00000000E+00  1.86532962E+00  9.61884379E-01 -5.42973448E-03  0.00000000E+00  9.61899698E-01  2.47640610E+00  1.32759714E+00  1.21684904E+01  6.68447912E-01  0.00000000E+00
 1  5.20099998E-01  1.23749999E-02  0.00000000E+00  1.86549675E+00  9.61743534E-01 -5.61787607E-03  0.00000000E+00  9.61759984E-01  2.47665381E+00  1.32761085E+00  1.21537104E+01  6.68447912E-01  0.00000000E+00
 1  5.20099998E-01  1.26250004E-02  0.00000000E+00  1.86566389E+00  9.61602747E-01 -5.80601767E-03  0.00000000E+00  9.61620271E-01  2.47690129E+00  1.32762468E+00  1.21389303E+01  6.68447912E-01  0.00000000E+00
 1  5.20099998E-01  1.28750000E-02  0.00000000E+00  1.86583090E+00  9.61461902E-01 -5.99415926E-03  0.00000000E+00  9.61480618E-01  2.47714877E+00  1.32763839E+00  1.21241503E+01  6.68447912E-01  0.00000000E+00
 1  5.20099998E-01  1.31249996E-02  0.00000000E+00  1.86599803E+00  9.61321115E-01 -6.18230086E-03  0.00000000E+00  9.61340964E-01  2.47739649E+00  1.32765222E+00  1.21093702E+01  6.68447912E-01  0.00000000E+00
 1  5.20099998E-01  1.33750001E-02  0.00000000E+00  1.86616516E+00  9.61180270E-01 -6.37044245E-03  0.00000000E+00  9.61201370E-01  2.47764397E+00  1.32766604E+00  1.20945902E+01  6.68447912E-01  0.00000000E+00
 1  5.20099998E-01  1.36249997E-02  0.00000000E+00  1.86633229E+00  9.61039484E-01 -6.55858405E-03  0.00000000E+00  9.61061835E-01  2.47789168E+00  1.32767975E+00  1.20798101E+01  6.68447912E-01  0.00000000E+00
 1  5.20099998E-01  1.38750002E-02  0.00000000E+00  1.86649942E+00  9.60898638E-01 -6.74672564E-03  0.00000000E+00  9.60922301E-01  2.47813916E+00  1.32769358E+00  1.20650301E+01  6.68447912E-01  0.00000000E+00
 1  5.20099998E-01  1.41249998E-02  0.00000000E+00  1.86666656E+00  9.60757852E-01 -6.93486724E-03  0.00000000E+00  9.60782826E-01  2.47838688E+00  1.32770729E+00  1.20502501E+01  6.68447912E-01  0.00000000E+00
 1  5.20099998E-01  1.43750003E-02  0.00000000E+00  1.86683357E+00  9.60617006E-01 -7.12300884E-03  0.00000000E+00  9.60643411E-01  2.47863436E+00  1.32772112E+00  1.20354700E+01  6.68447912E-01  0.00000000E+00
 1  5.20099998E-01  1.46249998E-02  0.00000000E+00  1.86700070E+00  9.60476220E-01 -7.31115090E-03  0.00000000E+00  9.60503995E-01  2.47888207E+00  1.32773483E+00  1.20206900E+01  6.68447912E-01  0.00000000E+00
 1  5.20099998E-01  1.48750003E-02  0.00000000E+00  1.86716783E+00  9.60335374E-01 -7.49929249E-03  0.00000000E+00  9.60364640E-01  2.47912955E+00  1.32774866E+00  1.20059099E+01  6.68447912E-01  0.00000000E+00
 1  5.20099998E-01  1.51249999E-02  0.00000000E+00  1.86733496E+00  9.60194528E-01 -7.68743409E-03  0.00000000E+00  9.60225344E-01  2.47937727E+00  1.32776248E+00  1.19911299E+01  6.68447912E-01  0.00000000E+00
 1  5.20099998E-01  1.53750004E-02  0.00000000E+00  1.86750209E+00  9.60053742E-01 -7.87557568E-03  0.00000000E+00  9.60086048E-01  2.47962475E+00  1.32777619E+00  1.19763498E+01  6.68447912E-01  0.00000000E+00
 1  5.20099998E-01  1.56250000E-02  0.00000000E+00  1.86766922E+00  9.59912896E-01 -8.06371681E-03  0.00000000E+00  9.59946811E-01  2.47987247E+00  1.32779002E+00  1.19615698E+01  6.68447912E-01  0.00000000E+00
 1  5.20099998E-01  1.58750005E-02  0.00000000E+00  1.86783624E+00  9.59772110E-01 -8.25185888E-03  0.00000000E+00  9.59807575E-01  2.48011994E+00  1.32780373E+00  1.19467897E+01  6.68447912E-01  0.00000000E+00
 1  5.20099998E-01  1.61249992E-02  0.00000000E+00  1.86800337E+00  9.59631264E-01 -8.44000001E-03  0.00000000E+00  9.59668398E-01  2.48036766E+00  1.32781756E+00  1.19320097E+01  6.68447912E-01  0.00000000E+00
 1  5.20099998E-01  1.63749997E-02  0.00000000E+00  1.86817050E+00  9.59490478E-01 -8.62814207E-03  0.00000000E+00  9.59529281E-01  2.48061538E+00  1.32783127E+00  1.19172297E+01  6.68447912E-01  0.00000000E+00
 1  5.20099998E-01  1.66250002E-02  0.00000000E+00  1.86833763E+00  9.59349632E-01 -8.81628413E-03  0.00000000E+00  9.59390163E-01  2.48086286E+00  1.32784510E+00  1.19024496E+01  6.68447912E-01  0.00000000E+00
 1  5.20099998E-01  1.68750007E-02  0.00000000E+00  1.86850476E+00  9.59208846E-01 -9.00442526E-03  0.00000000E+00  9.59251106E-01  2.48111057E+00  1.32785892E+00  1.18876696E+01  6.68447912E-01  0.00000000E+00
 1  5.20099998E-01  1.71249993E-02  0.00000000E+00  1.86867189E+00  9.59068000E-01 -9.19256732E-03  0.00000000E+00  9.59112048E-01  2.48135829E+00  1.32787263E+00  1.18728895E+01  6.68447912E-01  0.00000000E+00
 1  5.20099998E-01  1.73749998E-02  0.00000000E+00  1.86883891E+00  9.58927214E-01 -9.38070845E-03  0.00000000E+00  9.58973110E-01  2.48160577E+00  1.32788646E+00  1.18581095E+01  6.68447912E-01  0.00000000E+00
 1  5.20099998E-01  1.76250003E-02  0.00000000E+00  1.86900604E+00  9.58786368E-01 -9.56885051E-03  0.00000000E+00  9.58834112E-01  2.48185349E+00  1.32790017E+00  1.18433294E+01  6.68447912E-01  0.00000000E+00
 1  5.20099998E-01  1.78750008E-02  0.00000000E+00  1.86917317E+00  9.58645582E-01 -9.75699164E-03  0.00000000E+00  9.58695233E-01  2.48210120E+00  1.32791400E+00  1.18285494E+01  6.68447912E-01  0.00000000E+00
 1  5.20099998E-01  1.81249995E-02  0.00000000E+00  1.86934030E+00  9.58504736E-01 -9.94513370E-03  0.00000000E+00  9.58556354E-01  2.48234892E+00  1.32792771E+00  1.18137693E+01  6.68447912E-01  0.00000000E+00
 1  5.20099998E-01  1.83750000E-02  0.00000000E+00  1.86950743E+00  9.58363950E-01 -1.01332748E-02  0.00000000E+00  9.58417475E-01  2.48259664E+00  1.32794154E+00  1.17989893E+01  6.68447912E-01  0.00000000E+00
 1  5.20099998E-01  1.86250005E-02  0.00000000E+00  1.86967456E+00  9.58223104E-01 -1.03214169E-02  0.00000000E+00  9.58278716E-01  2.48284411E+00  1.32795537E+00  1.17842093E+01  6.68447912E-01  0.00000000E+00
 1  5.20099998E-01  1.88749991E-02  0.00000000E+00  1.86984158E+00  9.58082318E-01 -1.05095580E-02  0.00000000E+00  9.58139956E-01  2.48309183E+00  1.32796907E+00  1.17694292E+01  6.68447912E-01  0.00000000E+00
 1  5.20099998E-01  1.91249996E-02  0.00000000E+00  1.87000871E+00  9.57941473E-01 -1.06977001E-02  0.00000000E+00  9.58001196E-01  2.48333955E+00  1.32798290E+00  1.17546492E+01  6.68447912E-01  0.00000000E+00
 1  5.20099998E-01  1.93750001E-02  0.00000000E+00  1.87017584E+00  9.57800686E-01 -1.08858412E-02  0.00000000E+00  9.57862496E-01  2.48358727E+00  1.32799661E+00  1.17398691E+01  6.68447912E-01  0.00000000E+00
 1  5.20099998E-01  1.96250007E-02  0.00000000E+00  1.87034297E+00  9.57659841E-01 -1.10739833E-02  0.00000000E+00  9.57723856E-01  2.48383498E+00  1.32801044E+00  1.17250891E+01  6.68447912E-01  0.00000000E+00
 1  5.20099998E-01  1.98749993E-02  0.00000000E+00  1.87051010E+00  9.57518995E-01 -1.12621244E-02  0.00000000E+00  9.57585275E-01  2.48408270E+00  1.32802415E+00  1.17103090E+01  6.68447912E-01  0.00000000E+00
 1  5.20099998E-01  2.01249998E-02  0.00000000E+00  1.87051630E+00  9.57480133E-01 -1.14787174E-02  0.00000000E+00  9.57548976E-01  2.48405170E+00  1.32800329E+00  1.17022476E+01 -6.19056523E-01  0.00000000E+00
 1  5.20099998E-01  2.03750003E-02  0.00000000E+00  1.87036145E+00  9.57543194E-01 -1.17237614E-02  0.00000000E+00  9.57614958E-01  2.48374200E+00  1.32794762E+00  1.17009058E+01 -6.19056523E-01  0.00000000E+00
 1  5.20099998E-01  2.06250008E-02  0.00000000E+00  1.87020671E+00  9.57606256E-01 -1.19688055E-02  0.00000000E+00  9.57681060E-01  2.48343253E+00  1.32789195E+00  1.16995630E+01 -6.19056523E-01  0.00000000E+00
 1  5.20099998E-01  2.08749995E-02  0.00000000E+00  1.87005198E+00  9.57669318E-01 -1.22138495E-02  0.00000000E+00  9.57747221E-01  2.48312283E+00  1.32783628E+00  1.16982203E+01 -6.19056523E-01  0.00000000E+00
 1  5.20099998E-01  2.11250000E-02  0.00000000E+00  1.86989725E+00  9.57732379E-01 -1.24588935E-02  0.00000000E+00  9.57813442E-01  2.48281336E+00  1.32778072E+00  1.16968775E+01 -6.19056523E-01  0.00000000E+00
 1  5.20099998E-01  2.13750005E-02  0.00000000E+00  1.86974239E+00  9.57795441E-01 -1.27039375E-02  0.00000000E+00  9.57879663E-01  2.48250389E+00  1.32772505E+00  1.16955347E+01 -6.19056523E-01  0.00000000E+00
 1  5.20099998E-01  2.16249991E-02  0.00000000E+00  1.86958766E+00  9.57858503E-01 -1.29489815E-02  0.00000000E+00  9.57946002E-01  2.48219442E+00  1.32766938E+00  1.16941919E+01 -6.19056523E-01  0.00000000E+00
 1  5.20099998E-01  2.18749996E-02  0.00000000E+00  1.86943293E+00  9.57921565E-01 -1.31940255E-02  0.00000000E+00  9.58012402E-01  2.48188472E+00  1.32761371E+00  1.16928492E+01 -6.19056523E-01  0.00000000E+00
 1  5.20099998E-01  2.21250001E-02  0.00000000E+00  1.86927819E+00  9.57984626E-01 -1.34390686E-02  0.00000000E+00  9.58078861E-01  2.48157525E+00  1.32755816E+00  1.16915064E+01 -6.19056523E-01  0.00000000E+00
 1  5.20099998E-01  2.23750006E-02  0.00000000E+00  1.86912334E+00  9.58047688E-01 -1.36841126E-02  0.00000000E+00  9.58145380E-01  2.48126578E+00  1.32750249E+00  1.16901636E+01 -6.19056523E-01  0.00000000E+00
 1  5.20099998E-01  2.26249993E-02  0.00000000E+00  1.86896861E+00  9.58110750E-01 -1.39291566E-02  0.00000000E+00  9.58211958E-01  2.48095655E+00  1.32744682E+00  1.16888208E+01 -6.19056523E-01  0.00000000E+00
 1  5.20099998E-01  2.28749998E-02  0.00000000E+00  1.86881387E+00  9.58173811E-01 -1.41742006E-02  0.00000000E+00  9.58278656E-01  2.48064709E+00  1.32739115E+00  1.16874781E+01 -6.19056523E-01  0.00000000E+00
 1  5.20099998E-01  2.31250003E-02  0.00000000E+00  1.86865914E+00  9.58236873E-01 -1.44192446E-02  0.00000000E+00  9.58345354E-01  2.48033762E+00  1.32733548E+00  1.16861353E+01 -6.19056523E-01  0.00000000E+00
 1  5.20099998E-01  2.33750008E-02  0.00000000E+00  1.86850429E+00  9.58299935E-01 -1.46642886E-02  0.00000000E+00  9.58412111E-01  2.48002815E+00  1.32727993E+00  1.16847925E+01 -6.19056523E-01  0.00000000E+00
 1  5.20099998E-01  2.36249994E-02  0.00000000E+00  1.86834955E+00  9.58362997E-01 -1.49093326E-02  0.00000000E+00  9.58478928E-01  2.47971892E+00  1.32722425E+00  1.16834497E+01 -6.19056523E-01  0.00000000E+00
 1  5.20099998E-01  2.38750000E-02  0.00000000E+00  1.86819482E+00  9.58426058E-01 -1.51543766E-02  0.00000000E+00  9.58545864E-01  2.47940946E+00  1.32716858E+00  1.16821070E+01 -6.19056523E-01  0.00000000E+00
 1  5.20099998E-01  2.41250005E-02  0.00000000E+00  1.86803997E+00  9.58489120E-01 -1.53994206E-02  0.00000000E+00  9.58612800E-01  2.47910023E+00  1.32711291E+00  1.16807652E+01 -6.19056523E-01  0.00000000E+00
 1  5.20099998E-01  2.43749991E-02  0.00000000E+00  1.86788523E+00  9.58552182E-01 -1.56444646E-02  0.00000000E+00  9.58679795E-01  2.47879076E+00  1.32705736E+00  1.16794224E+01 -6.19056523E-01  0.00000000E+00
 1  5.20099998E-01  2.46249996E-02  0.00000000E+00  1.86773050E+00  9.58615243E-01 -1.58895086E-02  0.00000000E+00  9.58746910E-01  2.47848153E+00  1.32700169E+00  1.16780796E+01 -6.19056523E-01  0.00000000E+00
 1  5.20099998E-01  2.48750001E-02  0.00000000E+00  1.86757576E+00  9.58678246E-01 -1.61345527E-02  0.00000000E+00  9.58814025E-01  2.47817230E+00  1.32694602E+00  1.16767368E+01 -6.19056523E-01  0.00000000E+00
 1  5.20099998E-01  2.51250006E-02  0.00000000E+00  1.86742091E+00  9.58741307E-01 -1.63795967E-02  0.00000000E+00  9.58881259E-01  2.47786283E+00  1.32689035E+00  1.16753941E+01 -6.19056523E-01  0.00000000E+00
 1  5.20099998E-01  2.53749993E-02  0.00000000E+00  1.86726618E+00  9.58804369E-01 -1.66246407E-02  0.00000000E+00  9.58948493E-01  2.47755361E+00  1.32683468E+00  1.16740513E+01 -6.19056523E-01  0.00000000E+00
 1  5.20099998E-01  2.56249998E-02  0.00000000E+00  1.86711144E+00  9.58867431E-01 -1.68696847E-02  0.00000000E+00  9.59015846E-01  2.47724438E+00  1.32677913E+00  1.16727085E+01 -6.19056523E-01  0.00000000E+00
 1  5.20099998E-01  2.58750003E-02  0.00000000E+00  1.86695671E+00  9.58930492E-01 -1.71147287E-02  0.00000000E+00  9.59083259E-01  2.47693515E+00  1.32672346E+00  1.16713657E+01 -6.19056523E-01  0.00000000E+00
 1  5.20099998E-01  2.61250008E-02  0.00000000E+00  1.86680186E+00  9.58993554E-01 -1.73597727E-02  0.00000000E+00  9.59150672E-01  2.47662592E+00  1.32666779E+00  1.16700230E+01 -6.19056523E-01  0.00000000E+00
 1  5.20099998E-01  2.63749994E-02  0.00000000E+00  1.86664712E+00  9.59056616E-01 -1.76048167E-02  0.00000000E+00  9.59218204E-01  2.47631669E+00  1.32661211E+00  1.16686802E+01 -6.19056523E-01  0.00000000E+00
 1  5.20099998E-01  2.66249999E-02  0.00000000E+00  1.86649239E+00  9.59119678E-01 -1.78498589E-02  0.00000000E+00  9.59285796E-01  2.47600770E+00  1.32655656E+00  1.16673374E+01 -6.19056523E-01  0.00000000E+00
 1  5.20099998E-01  2.68750004E-02  0.00000000E+00  1.86633766E+00  9.59182739E-01 -1.80949029E-02  0.00000000E+00  9.59353387E-01  2.47569847E+00  1.32650089E+00  1.16659946E+01 -6.19056523E-01  0.00000000E+00
 1  5.20099998E-01  2.71249991E-02  0.00000000E+00  1.86618280E+00  9.59245801E-01 -1.83399469E-02  0.00000000E+00  9.59421098E-01  2.47538924E+00  1.32644522E+00  1.16646519E+01 -6.19056523E-01  0.00000000E+00
 1  5.20099998E-01  2.73749996E-02  0.00000000E+00  1.86602807E+00  9.59308863E-01 -1.85849909E-02  0.00000000E+00  9.59488869E-01  2.47508025E+00  1.32638955E+00  1.16633091E+01 -6.19056523E-01  0.00000000E+00
 1  5.20099998E-01  2.76250001E-02  0.00000000E+00  1.86587334E+00  9.59371924E-01 -1.88300349E-02  0.00000000E+00  9.59556699E-01  2.47477102E+00  1.32633400E+00  1.16619663E+01 -6.19056523E-01  0.00000000E+00
 1  5.20099998E-01  2.78750006E-02  0.00000000E+00  1.86571860E+00  9.59434986E-01 -1.90750789E-02  0.00000000E+00  9.59624588E-01  2.47446203E+00  1.32627833E+00  1.16606236E+01 -6.19056523E-01  0.00000000E+00
 1  5.20099998E-01  2.81249993E-02  0.00000000E+00  1.86556375E+00  9.59498048E-01 -1.93201229E-02  0.00000000E+00  9.59692538E-01  2.47415304E+00  1.32622266E+00  1.16592817E+01 -6.19056523E-01  0.00000000E+00
 1  5.20099998E-01  2.83749998E-02  0.00000000E+00  1.86540902E+00  9.59561110E-01 -1.95651669E-02  0.00000000E+00  9.59760547E-01  2.47384381E+00  1.32616699E+00  1.16579390E+01 -6.19056523E-01  0.00000000E+00
 1  5.20099998E-01  2.86250003E-02  0.00000000E+00  1.86525428E+00  9.59624171E-01 -1.98102109E-02  0.00000000E+00  9.59828615E-01  2.47353482E+00  1.32611132E+00  1.16565962E+01 -6.19056523E-01  0.00000000E+00
 1  5.20099998E-01  2.88750008E-02  0.00000000E+00  1.86509955E+00  9.59687233E-01 -2.00552549E-02  0.00000000E+00  9.59896743E-01  2.47322583E+00  1.32605577E+00  1.16552534E+01 -6.19056523E-01  0.00000000E+00
 1  5.20099998E-01  2.91249994E-02  0.00000000E+00  1.86494470E+00  9.59750295E-01 -2.03002989E-02  0.00000000E+00  9.59964931E-01  2.47291684E+00  1.32600009E+00  1.16539106E+01 -6.19056523E-01  0.00000000E+00
 1  5.20099998E-01  2.93749999E-02  0.00000000E+00  1.86478996E+00  9.59813356E-01 -2.05453429E-02  0.00000000E+00  9.60033238E-01  2.47260785E+00  1.32594442E+00  1.16525679E+01 -6.19056523E-01  0.00000000E+00
 1  5.20099998E-01  2.96250004E-02  0.00000000E+00  1.86463523E+00  9.59876418E-01 -2.07903869E-02  0.00000000E+00  9.60101545E-01  2.47229886E+00  1.32588875E+00  1.16512251E+01 -6.19056523E-01  0.00000000E+00
 1  5.20099998E-01  2.98749991E-02  0.00000000E+00  1.86448050E+00  9.59939480E-01 -2.10354310E-02  0.00000000E+00  9.60169911E-01  2.47198987E+00  1.32583320E+00  1.16498823E+01 -6.19056523E-01  0.00000000E+00
 1  5.20099998E-01  3.01249996E-02  0.00000000E+00  1.86429107E+00  9.60058153E-01 -2.13093664E-02  0.00000000E+00  9.60294604E-01  2.47158289E+00  1.32574940E+00  1.16398869E+01 -8.95721734E-01  0.00000000E+00
 1  5.20099998E-01  3.03750001E-02  0.00000000E+00  1.86406720E+00  9.60232437E-01 -2.16121953E-02  0.00000000E+00  9.60475624E-01  2.47107768E+00  1.32563770E+00  1.16212397E+01 -8.95721734E-01  0.00000000E+00
 1  5.20099998E-01  3.06250006E-02  0.00000000E+00  1.86384320E+00  9.60406721E-01 -2.19150241E-02  0.00000000E+00  9.60656703E-01  2.47057247E+00  1.32552588E+00  1.16025925E+01 -8.95721734E-01  0.00000000E+00
 1  5.20099998E-01  3.08749992E-02  0.00000000E+00  1.86361933E+00  9.60581005E-01 -2.22178511E-02  0.00000000E+00  9.60837901E-01  2.47006726E+00  1.32541406E+00  1.15839453E+01 -8.95721734E-01  0.00000000E+00
 1  5.20099998E-01  3.11249997E-02  0.00000000E+00  1.86339533E+00  9.60755289E-01 -2.25206800E-02  0.00000000E+00  9.61019158E-01  2.46956229E+00  1.32530236E+00  1.15652981E+01 -8.95721734E-01  0.00000000E+00
 1  5.20099998E-01  3.13749984E-02  0.00000000E+00  1.86317146E+00  9.60929573E-01 -2.28235088E-02  0.00000000E+00  9.61200535E-01  2.46905708E+00  1.32519054E+00  1.15466509E+01 -8.95721734E-01  0.00000000E+00
 1  5.20099998E-01  3.16249989E-02  0.00000000E+00  1.86294746E+00  9.61103857E-01 -2.31263377E-02  0.00000000E+00  9.61382031E-01  2.46855211E+00  1.32507873E+00  1.15280027E+01 -8.95721734E-01  0.00000000E+00
 1  5.20099998E-01  3.18749994E-02  0.00000000E+00  1.86272359E+00  9.61278141E-01 -2.34291647E-02  0.00000000E+00  9.61563587E-01  2.46804738E+00  1.32496703E+00  1.15093555E+01 -8.95721734E-01  0.00000000E+00
 1  5.20099998E-01  3.21249999E-02  0.00000000E+00  1.86249971E+00  9.61452425E-01 -2.37319935E-02  0.00000000E+00  9.61745262E-01  2.46754241E+00  1.32485521E+00  1.14907084E+01 -8.95721734E-01  0.00000000E+00
 1  5.20099998E-01  3.23750004E-02  0.00000000E+00  1.86227572E+00  9.61626709E-01 -2.40348224E-02  0.00000000E+00  9.61926997E-01  2.46703744E+00  1.32474339E+00  1.14720612E+01 -8.95721734E-01  0.00000000E+00
 1  5.20099998E-01  3.26250009E-02  0.00000000E+00  1.86205184E+00  9.61800992E-01 -2.43376512E-02  0.00000000E+00  9.62108850E-01  2.46653271E+00  1.32463169E+00  1.14534140E+01 -8.95721734E-01  0.00000000E+00
 1  5.20099998E-01  3.28750014E-02  0.00000000E+00  1.86182785E+00  9.61975276E-01 -2.46404782E-02  0.00000000E+00  9.62290764E-01  2.46602798E+00  1.32451987E+00  1.14347658E+01 -8.95721734E-01  0.00000000E+00
 1  5.20099998E-01  3.31249982E-02  0.00000000E+00  1.86160398E+00  9.62149560E-01 -2.49433070E-02  0.00000000E+00  9.62472796E-01  2.46552324E+00  1.32440805E+00  1.14161186E+01 -8.95721734E-01  0.00000000E+00
 1  5.20099998E-01  3.33749987E-02  0.00000000E+00  1.86137998E+00  9.62323844E-01 -2.52461359E-02  0.00000000E+00  9.62654948E-01  2.46501875E+00  1.32429636E+00  1.13974714E+01 -8.95721734E-01  0.00000000E+00
 1  5.20099998E-01  3.36249992E-02  0.00000000E+00  1.86115611E+00  9.62498128E-01 -2.55489629E-02  0.00000000E+00  9.62837160E-01  2.46451402E+00  1.32418454E+00  1.13788242E+01 -8.95721734E-01  0.00000000E+00
 1  5.20099998E-01  3.38749997E-02  0.00000000E+00  1.86093211E+00  9.62672412E-01 -2.58517917E-02  0.00000000E+00  9.63019431E-01  2.46400952E+00  1.32407272E+00  1.13601770E+01 -8.95721734E-01  0.00000000E+00
 1  5.20099998E-01  3.41250002E-02  0.00000000E+00  1.86070824E+00  9.62846696E-01 -2.61546206E-02  0.00000000E+00  9.63201821E-01  2.46350503E+00  1.32396102E+00  1.13415289E+01 -8.95721734E-01  0.00000000E+00
 1  5.20099998E-01  3.43750007E-02  0.00000000E+00  1.86048424E+00  9.63020980E-01 -2.64574494E-02  0.00000000E+00  9.63384330E-01  2.46300054E+00  1.32384920E+00  1.13228817E+01 -8.95721734E-01  0.00000000E+00
 1  5.20099998E-01  3.46250013E-02  0.00000000E+00  1.86026037E+00  9.63195264E-01 -2.67602764E-02  0.00000000E+00  9.63566899E-01  2.46249628E+00  1.32373738E+00  1.13042345E+01 -8.95721734E-01  0.00000000E+00
 1  5.20099998E-01  3.48750018E-02  0.00000000E+00  1.86003637E+00  9.63369548E-01 -2.70631053E-02  0.00000000E+00  9.63749588E-01  2.46199203E+00  1.32362568E+00  1.12855873E+01 -8.95721734E-01  0.00000000E+00