# CoordinateSystem = xByUzL
# Units = ISS
VARIABLES = "Found","X","Y","Z","Density","VelocityX","VelocityY","VelocityZ","VelocityMag","Pressure","Temperature","DensityGradientX","DensityGradientY","DensityGradientZ"
ZONE T="t = 7.00000000E-01",I=4000,SOLUTIONTIME=7.00000000E-01
 1  1.05009997E+00  1.25000006E-04  0.00000000E+00  1.84218419E+00  9.51340139E-01 -7.95948508E-05  0.00000000E+00  9.51340139E-01  2.43020773E+00  1.31919909E+00 -4.44554053E-02  6.17343843E-01  0.00000000E+00
 1  1.05009997E+00  3.75000003E-04  0.00000000E+00  1.84233856E+00  9.51685905E-01 -8.66886403E-05  0.00000000E+00  9.51685905E-01  2.43024087E+00  1.31910658E+00 -4.46512215E-02  6.17343843E-01  0.00000000E+00
 1  1.05009997E+00  6.24999986E-04  0.00000000E+00  1.84249282E+00  9.52031612E-01 -9.37824298E-05  0.00000000E+00  9.52031672E-01  2.43027401E+00  1.31901395E+00 -4.48470339E-02  6.17343843E-01  0.00000000E+00
 1  1.05009997E+00  8.75000027E-04  0.00000000E+00  1.84264719E+00  9.52377379E-01 -1.00876226E-04  0.00000000E+00  9.52377379E-01  2.43030691E+00  1.31892145E+00 -4.50428464E-02  6.17343843E-01  0.00000000E+00
 1  1.05009997E+00  1.12499995E-03  0.00000000E+00  1.84280157E+00  9.52723145E-01 -1.07970016E-04  0.00000000E+00  9.52723145E-01  2.43034005E+00  1.31882894E+00 -4.52386588E-02  6.17343843E-01  0.00000000E+00
 1  1.05009997E+00  1.37499999E-03  0.00000000E+00  1.84295583E+00  9.53068852E-01 -1.15063805E-04  0.00000000E+00  9.53068852E-01  2.43037295E+00  1.31873643E+00 -4.54344712E-02  6.17343843E-01  0.00000000E+00
 1  1.05009997E+00  1.62500003E-03  0.00000000E+00  1.84311020E+00  9.53414619E-01 -1.22157595E-04  0.00000000E+00  9.53414619E-01  2.43040609E+00  1.31864393E+00 -4.56302874E-02  6.17343843E-01  0.00000000E+00
 1  1.05009997E+00  1.87499996E-03  0.00000000E+00  1.84326458E+00  9.53760326E-01 -1.29251392E-04  0.00000000E+00  9.53760326E-01  2.43043900E+00  1.31855142E+00 -4.58260998E-02  6.17343843E-01  0.00000000E+00
 1  1.05009997E+00  2.12500012E-03  0.00000000E+00  1.84341884E+00  9.54106092E-01 -1.36345188E-04  0.00000000E+00  9.54106092E-01  2.43047190E+00  1.31845880E+00 -4.60219122E-02  6.17343843E-01  0.00000000E+00
 1  1.05009997E+00  2.37499992E-03  0.00000000E+00  1.84357321E+00  9.54451799E-01 -1.43438971E-04  0.00000000E+00  9.54451859E-01  2.43050480E+00  1.31836629E+00 -4.62177247E-02  6.17343843E-01  0.00000000E+00
 1  1.05009997E+00  2.62499996E-03  0.00000000E+00  1.84372759E+00  9.54797566E-01 -1.50532767E-04  0.00000000E+00  9.54797566E-01  2.43053770E+00  1.31827378E+00 -4.64135408E-02  6.17343843E-01  0.00000000E+00
 1  1.05009997E+00  2.87500001E-03  0.00000000E+00  1.84388185E+00  9.55143332E-01 -1.57626549E-04  0.00000000E+00  9.55143332E-01  2.43057060E+00  1.31818128E+00 -4.66093533E-02  6.17343843E-01  0.00000000E+00
 1  1.05009997E+00  3.12500005E-03  0.00000000E+00  1.84403622E+00  9.55489039E-01 -1.64720346E-04  0.00000000E+00  9.55489039E-01  2.43060327E+00  1.31808877E+00 -4.68051657E-02  6.17343843E-01  0.00000000E+00
 1  1.05009997E+00  3.37500009E-03  0.00000000E+00  1.84419060E+00  9.55834806E-01 -1.71814143E-04  0.00000000E+00  9.55834806E-01  2.43063617E+00  1.31799614E+00 -4.70009781E-02  6.17343843E-01  0.00000000E+00
 1  1.05009997E+00  3.62499990E-03  0.00000000E+00  1.84434485E+00  9.56180513E-01 -1.78907925E-04  0.00000000E+00  9.56180573E-01  2.43066883E+00  1.31790364E+00 -4.71967906E-02  6.17343843E-01  0.00000000E+00
 1  1.05009997E+00  3.87499994E-03  0.00000000E+00  1.84449923E+00  9.56526279E-01 -1.86001722E-04  0.00000000E+00  9.56526279E-01  2.43070173E+00  1.31781113E+00 -4.73926067E-02  6.17343843E-01  0.00000000E+00
 1  1.05009997E+00  4.12499998E-03  0.00000000E+00  1.84465361E+00  9.56871986E-01 -1.93095519E-04  0.00000000E+00  9.56872046E-01  2.43073440E+00  1.31771863E+00 -4.75884192E-02  6.17343843E-01  0.00000000E+00
 1  1.05009997E+00  4.37500002E-03  0.00000000E+00  1.84480786E+00  9.57217753E-01 -2.00189301E-04  0.00000000E+00  9.57217753E-01  2.43076706E+00  1.31762612E+00 -4.77842316E-02  6.17343843E-01  0.00000000E+00
 1  1.05009997E+00  4.62500006E-03  0.00000000E+00  1.84496224E+00  9.57563519E-01 -2.07283098E-04  0.00000000E+00  9.57563519E-01  2.43079972E+00  1.31753349E+00 -4.79800440E-02  6.17343843E-01  0.00000000E+00
 1  1.05009997E+00  4.87500010E-03  0.00000000E+00  1.84511662E+00  9.57909226E-01 -2.14376894E-04  0.00000000E+00  9.57909286E-01  2.43083215E+00  1.31744099E+00 -4.81758602E-02  6.17343843E-01  0.00000000E+00
 1  1.05009997E+00  5.12500014E-03  0.00000000E+00  1.84527087E+00  9.58254993E-01 -2.21470676E-04  0.00000000E+00  9.58254993E-01  2.43086481E+00  1.31734848E+00 -4.83716726E-02  6.17343843E-01  0.00000000E+00
 1  1.05009997E+00  5.37500018E-03  0.00000000E+00  1.84542525E+00  9.58600700E-01 -2.28564473E-04  0.00000000E+00  9.58600760E-01  2.43089747E+00  1.31725597E+00 -4.85674851E-02  6.17343843E-01  0.00000000E+00
 1  1.05009997E+00  5.62500022E-03  0.00000000E+00  1.84557962E+00  9.58946466E-01 -2.35658255E-04  0.00000000E+00  9.58946466E-01  2.43092990E+00  1.31716347E+00 -4.87632975E-02  6.17343843E-01  0.00000000E+00
 1  1.05009997E+00  5.87499980E-03  0.00000000E+00  1.84573388E+00  9.59292173E-01 -2.42752052E-04  0.00000000E+00  9.59292233E-01  2.43096232E+00  1.31707084E+00 -4.89591099E-02  6.17343843E-01  0.00000000E+00
 1  1.05009997E+00  6.12499984E-03  0.00000000E+00  1.84588826E+00  9.59637940E-01 -2.49845849E-04  0.00000000E+00  9.59637940E-01  2.43099499E+00  1.31697834E+00 -4.91549261E-02  6.17343843E-01  0.00000000E+00
 1  1.05009997E+00  6.37499988E-03  0.00000000E+00  1.84604263E+00  9.59983706E-01 -2.56939646E-04  0.00000000E+00  9.59983706E-01  2.43102741E+00  1.31688583E+00 -4.93507385E-02  6.17343843E-01  0.00000000E+00
 1  1.05009997E+00  6.62499992E-03  0.00000000E+00  1.84619689E+00  9.60329413E-01 -2.64033442E-04  0.00000000E+00  9.60329473E-01  2.43105984E+00  1.31679332E+00 -4.95465510E-02  6.17343843E-01  0.00000000E+00
 1  1.05009997E+00  6.87499996E-03  0.00000000E+00  1.84635127E+00  9.60675180E-01 -2.71127210E-04  0.00000000E+00  9.60675180E-01  2.43109226E+00  1.31670082E+00 -4.97423634E-02  6.17343843E-01  0.00000000E+00
 1  1.05009997E+00  7.12500000E-03  0.00000000E+00  1.84650564E+00  9.61020887E-01 -2.78221007E-04  0.00000000E+00  9.61020947E-01  2.43112445E+00  1.31660831E+00 -4.99381796E-02  6.17343843E-01  0.00000000E+00
 1  1.05009997E+00  7.37500004E-03  0.00000000E+00  1.84665990E+00  9.61366653E-01 -2.85314803E-04  0.00000000E+00  9.61366653E-01  2.43115687E+00  1.31651568E+00 -5.01339920E-02  6.17343843E-01  0.00000000E+00
 1  1.05009997E+00  7.62500009E-03  0.00000000E+00  1.84681427E+00  9.61712360E-01 -2.92408600E-04  0.00000000E+00  9.61712420E-01  2.43118906E+00  1.31642318E+00 -5.03298044E-02  6.17343843E-01  0.00000000E+00
 1  1.05009997E+00  7.87500013E-03  0.00000000E+00  1.84696865E+00  9.62058127E-01 -2.99502397E-04  0.00000000E+00  9.62058187E-01  2.43122149E+00  1.31633067E+00 -5.05256169E-02  6.17343843E-01  0.00000000E+00
 1  1.05009997E+00  8.12499970E-03  0.00000000E+00  1.84712291E+00  9.62403834E-01 -3.06596165E-04  0.00000000E+00  9.62403893E-01  2.43125367E+00  1.31623816E+00 -5.07214293E-02  6.17343843E-01  0.00000000E+00
 1  1.05009997E+00  8.37500021E-03  0.00000000E+00  1.84727728E+00  9.62749600E-01 -3.13689961E-04  0.00000000E+00  9.62749660E-01  2.43128586E+00  1.31614566E+00 -5.09172454E-02  6.17343843E-01  0.00000000E+00
 1  1.05009997E+00  8.62499978E-03  0.00000000E+00  1.84743166E+00  9.63095367E-01 -3.20783758E-04  0.00000000E+00  9.63095427E-01  2.43131804E+00  1.31605303E+00 -5.11130579E-02  6.17343843E-01  0.00000000E+00
 1  1.05009997E+00  8.87500029E-03  0.00000000E+00  1.84758592E+00  9.63441074E-01 -3.27877555E-04  0.00000000E+00  9.63441133E-01  2.43135023E+00  1.31596053E+00 -5.13088703E-02  6.17343843E-01  0.00000000E+00
 1  1.05009997E+00  9.12499987E-03  0.00000000E+00  1.84774029E+00  9.63786840E-01 -3.34971352E-04  0.00000000E+00  9.63786900E-01  2.43138242E+00  1.31586802E+00 -5.15046827E-02  6.17343843E-01  0.00000000E+00
 1  1.05009997E+00  9.37500037E-03  0.00000000E+00  1.84789467E+00  9.64132547E-01 -3.42065148E-04  0.00000000E+00  9.64132607E-01  2.43141437E+00  1.31577551E+00 -5.17004989E-02  6.17343843E-01  0.00000000E+00
 1  1.05009997E+00  9.62499995E-03  0.00000000E+00  1.84804893E+00  9.64478314E-01 -3.49158916E-04  0.00000000E+00  9.64478374E-01  2.43144655E+00  1.31568301E+00 -5.18963113E-02  6.17343843E-01  0.00000000E+00
 1  1.05009997E+00  9.87500045E-03  0.00000000E+00  1.84820330E+00  9.64824021E-01 -3.56252713E-04  0.00000000E+00  9.64824140E-01  2.43147850E+00  1.31559038E+00 -5.20921238E-02  6.17343843E-01  0.00000000E+00
 1  1.05009997E+00  1.01250000E-02  0.00000000E+00  1.84831750E+00  9.65034127E-01 -3.71446979E-04  0.00000000E+00  9.65034246E-01  2.43154716E+00  1.31554615E+00 -5.25121465E-02  2.96142697E-01  0.00000000E+00
 1  1.05009997E+00  1.03749996E-02  0.00000000E+00  1.84839153E+00  9.65108633E-01 -3.94741743E-04  0.00000000E+00  9.65108693E-01  2.43165207E+00  1.31555033E+00 -5.31563796E-02  2.96142697E-01  0.00000000E+00
 1  1.05009997E+00  1.06250001E-02  0.00000000E+00  1.84846556E+00  9.65183079E-01 -4.18036478E-04  0.00000000E+00  9.65183198E-01  2.43175697E+00  1.31555438E+00 -5.38006090E-02  2.96142697E-01  0.00000000E+00
 1  1.05009997E+00  1.08749997E-02  0.00000000E+00  1.84853959E+00  9.65257585E-01 -4.41331242E-04  0.00000000E+00  9.65257645E-01  2.43186188E+00  1.31555843E+00 -5.44448420E-02  2.96142697E-01  0.00000000E+00
 1  1.05009997E+00  1.11250002E-02  0.00000000E+00  1.84861362E+00  9.65332031E-01 -4.64625977E-04  0.00000000E+00  9.65332150E-01  2.43196678E+00  1.31556249E+00 -5.50890751E-02  2.96142697E-01  0.00000000E+00
 1  1.05009997E+00  1.13749998E-02  0.00000000E+00  1.84868765E+00  9.65406537E-01 -4.87920741E-04  0.00000000E+00  9.65406656E-01  2.43207169E+00  1.31556666E+00 -5.57333045E-02  2.96142697E-01  0.00000000E+00
 1  1.05009997E+00  1.16250003E-02  0.00000000E+00  1.84876168E+00  9.65480983E-01 -5.11215476E-04  0.00000000E+00  9.65481102E-01  2.43217683E+00  1.31557071E+00 -5.63775375E-02  2.96142697E-01  0.00000000E+00
 1  1.05009997E+00  1.18749999E-02  0.00000000E+00  1.84883571E+00  9.65555489E-01 -5.34510240E-04  0.00000000E+00  9.65555608E-01  2.43228173E+00  1.31557477E+00 -5.70217706E-02  2.96142697E-01  0.00000000E+00
 1  1.05009997E+00  1.21250004E-02  0.00000000E+00  1.84890974E+00  9.65629935E-01 -5.57805004E-04  0.00000000E+00  9.65630114E-01  2.43238664E+00  1.31557882E+00 -5.76660000E-02  2.96142697E-01  0.00000000E+00
 1  1.05009997E+00  1.23749999E-02  0.00000000E+00  1.84898376E+00  9.65704381E-01 -5.81099768E-04  0.00000000E+00  9.65704560E-01  2.43249154E+00  1.31558299E+00 -5.83102331E-02  2.96142697E-01  0.00000000E+00
 1  1.05009997E+00  1.26250004E-02  0.00000000E+00  1.84905779E+00  9.65778887E-01 -6.04394474E-04  0.00000000E+00  9.65779066E-01  2.43259645E+00  1.31558704E+00 -5.89544661E-02  2.96142697E-01  0.00000000E+00
 1  1.05009997E+00  1.28750000E-02  0.00000000E+00  1.84913182E+00  9.65853333E-01 -6.27689238E-04  0.00000000E+00  9.65853572E-01  2.43270135E+00  1.31559110E+00 -5.95986955E-02  2.96142697E-01  0.00000000E+00
 1  1.05009997E+00  1.31249996E-02  0.00000000E+00  1.84920585E+00  9.65927839E-01 -6.50984002E-04  0.00000000E+00  9.65928018E-01  2.43280649E+00  1.31559515E+00 -6.02429286E-02  2.96142697E-01  0.00000000E+00
 1  1.05009997E+00  1.33750001E-02  0.00000000E+00  1.84928000E+00  9.66002285E-01 -6.74278766E-04  0.00000000E+00  9.66002524E-01  2.43291140E+00  1.31559932E+00 -6.08871616E-02  2.96142697E-01  0.00000000E+00
 1  1.05009997E+00  1.36249997E-02  0.00000000E+00  1.84935403E+00  9.66076791E-01 -6.97573472E-04  0.00000000E+00  9.66077030E-01  2.43301630E+00  1.31560338E+00 -6.15313910E-02  2.96142697E-01  0.00000000E+00
 1  1.05009997E+00  1.38750002E-02  0.00000000E+00  1.84942806E+00  9.66151237E-01 -7.20868236E-04  0.00000000E+00  9.66151536E-01  2.43312120E+00  1.31560743E+00 -6.21756241E-02  2.96142697E-01  0.00000000E+00
 1  1.05009997E+00  1.41249998E-02  0.00000000E+00  1.84950209E+00  9.66225684E-01 -7.44163000E-04  0.00000000E+00  9.66225982E-01  2.43322611E+00  1.31561148E+00 -6.28198534E-02  2.96142697E-01  0.00000000E+00
 1  1.05009997E+00  1.43750003E-02  0.00000000E+00  1.84957612E+00  9.66300189E-01 -7.67457765E-04  0.00000000E+00  9.66300488E-01  2.43333125E+00  1.31561565E+00 -6.34640902E-02  2.96142697E-01  0.00000000E+00
 1  1.05009997E+00  1.46249998E-02  0.00000000E+00  1.84965014E+00  9.66374636E-01 -7.90752470E-04  0.00000000E+00  9.66374993E-01  2.43343616E+00  1.31561971E+00 -6.41083196E-02  2.96142697E-01  0.00000000E+00
 1  1.05009997E+00  1.48750003E-02  0.00000000E+00  1.84972417E+00  9.66449142E-01 -8.14047235E-04  0.00000000E+00  9.66449440E-01  2.43354106E+00  1.31562376E+00 -6.47525489E-02  2.96142697E-01  0.00000000E+00
 1  1.05009997E+00  1.51249999E-02  0.00000000E+00  1.84979820E+00  9.66523588E-01 -8.37341999E-04  0.00000000E+00  9.66523945E-01  2.43364596E+00  1.31562781E+00 -6.53967857E-02  2.96142697E-01  0.00000000E+00
 1  1.05009997E+00  1.53750004E-02  0.00000000E+00  1.84987223E+00  9.66598094E-01 -8.60636763E-04  0.00000000E+00  9.66598451E-01  2.43375087E+00  1.31563187E+00 -6.60410151E-02  2.96142697E-01  0.00000000E+00
 1  1.05009997E+00  1.56250000E-02  0.00000000E+00  1.84994626E+00  9.66672540E-01 -8.83931469E-04  0.00000000E+00  9.66672957E-01  2.43385601E+00  1.31563604E+00 -6.66852444E-02  2.96142697E-01  0.00000000E+00
 1  1.05009997E+00  1.58750005E-02  0.00000000E+00  1.85002029E+00  9.66746986E-01 -9.07226233E-04  0.00000000E+00  9.66747463E-01  2.43396091E+00  1.31564009E+00 -6.73294812E-02  2.96142697E-01  0.00000000E+00
 1  1.05009997E+00  1.61249992E-02  0.00000000E+00  1.85009432E+00  9.66821492E-01 -9.30520997E-04  0.00000000E+00  9.66821909E-01  2.43406582E+00  1.31564415E+00 -6.79737106E-02  2.96142697E-01  0.00000000E+00
 1  1.05009997E+00  1.63749997E-02  0.00000000E+00  1.85016835E+00  9.66895938E-01 -9.53815761E-04  0.00000000E+00  9.66896415E-01  2.43417072E+00  1.31564820E+00 -6.86179399E-02  2.96142697E-01  0.00000000E+00
 1  1.05009997E+00  1.66250002E-02  0.00000000E+00  1.85024238E+00  9.66970444E-01 -9.77110467E-04  0.00000000E+00  9.66970921E-01  2.43427563E+00  1.31565237E+00 -6.92621768E-02  2.96142697E-01  0.00000000E+00
 1  1.05009997E+00  1.68750007E-02  0.00000000E+00  1.85031641E+00  9.67044890E-01 -1.00040529E-03  0.00000000E+00  9.67045426E-01  2.43438077E+00  1.31565642E+00 -6.99064061E-02  2.96142697E-01  0.00000000E+00
 1  1.05009997E+00  1.71249993E-02  0.00000000E+00  1.85039043E+00  9.67119396E-01 -1.02370000E-03  0.00000000E+00  9.67119932E-01  2.43448567E+00  1.31566048E+00 -7.05506355E-02  2.96142697E-01  0.00000000E+00
 1  1.05009997E+00  1.73749998E-02  0.00000000E+00  1.85046446E+00  9.67193842E-01 -1.04699470E-03  0.00000000E+00  9.67194438E-01  2.43459058E+00  1.31566453E+00 -7.11948723E-02  2.96142697E-01  0.00000000E+00
 1  1.05009997E+00  1.76250003E-02  0.00000000E+00  1.85053849E+00  9.67268348E-01 -1.07028952E-03  0.00000000E+00  9.67268884E-01  2.43469548E+00  1.31566870E+00 -7.18391016E-02  2.96142697E-01  0.00000000E+00
 1  1.05009997E+00  1.78750008E-02  0.00000000E+00  1.85061264E+00  9.67342794E-01 -1.09358423E-03  0.00000000E+00  9.67343390E-01  2.43480062E+00  1.31567276E+00 -7.24833310E-02  2.96142697E-01  0.00000000E+00
 1  1.05009997E+00  1.81249995E-02  0.00000000E+00  1.85068667E+00  9.67417240E-01 -1.11687905E-03  0.00000000E+00  9.67417896E-01  2.43490553E+00  1.31567681E+00 -7.31275678E-02  2.96142697E-01  0.00000000E+00
 1  1.05009997E+00  1.83750000E-02  0.00000000E+00  1.85076070E+00  9.67491746E-01 -1.14017376E-03  0.00000000E+00  9.67492402E-01  2.43501043E+00  1.31568086E+00 -7.37717971E-02  2.96142697E-01  0.00000000E+00
 1  1.05009997E+00  1.86250005E-02  0.00000000E+00  1.85083473E+00  9.67566192E-01 -1.16346846E-03  0.00000000E+00  9.67566907E-01  2.43511534E+00  1.31568503E+00 -7.44160265E-02  2.96142697E-01  0.00000000E+00
 1  1.05009997E+00  1.88749991E-02  0.00000000E+00  1.85090876E+00  9.67640698E-01 -1.18676329E-03  0.00000000E+00  9.67641413E-01  2.43522048E+00  1.31568909E+00 -7.50602633E-02  2.96142697E-01  0.00000000E+00
 1  1.05009997E+00  1.91249996E-02  0.00000000E+00  1.85098279E+00  9.67715144E-01 -1.21005799E-03  0.00000000E+00  9.67715919E-01  2.43532538E+00  1.31569314E+00 -7.57044926E-02  2.96142697E-01  0.00000000E+00
 1  1.05009997E+00  1.93750001E-02  0.00000000E+00  1.85105681E+00  9.67789650E-01 -1.23335270E-03  0.00000000E+00  9.67790425E-01  2.43543029E+00  1.31569719E+00 -7.63487220E-02  2.96142697E-01  0.00000000E+00
 1  1.05009997E+00  1.96250007E-02  0.00000000E+00  1.85113084E+00  9.67864096E-01 -1.25664752E-03  0.00000000E+00  9.67864931E-01  2.43553519E+00  1.31570137E+00 -7.69929588E-02  2.96142697E-01  0.00000000E+00
 1  1.05009997E+00  1.98749993E-02  0.00000000E+00  1.85120487E+00  9.67938542E-01 -1.27994223E-03  0.00000000E+00  9.67939436E-01  2.43564034E+00  1.31570542E+00 -7.76371881E-02  2.96142697E-01  0.00000000E+00
 1  1.05009997E+00  2.01249998E-02  0.00000000E+00  1.85126925E+00  9.67923820E-01 -1.31404307E-03  0.00000000E+00  9.67924714E-01  2.43577409E+00  1.31573200E+00 -7.84035996E-02  2.18721747E-01  0.00000000E+00
 1  1.05009997E+00  2.03750003E-02  0.00000000E+00  1.85132396E+00  9.67819870E-01 -1.35895016E-03  0.00000000E+00  9.67820823E-01  2.43593693E+00  1.31578100E+00 -7.92921931E-02  2.18721747E-01  0.00000000E+00
 1  1.05009997E+00  2.06250008E-02  0.00000000E+00  1.85137856E+00  9.67715859E-01 -1.40385714E-03  0.00000000E+00  9.67716873E-01  2.43609953E+00  1.31582999E+00 -8.01807866E-02  2.18721747E-01  0.00000000E+00
 1  1.05009997E+00  2.08749995E-02  0.00000000E+00  1.85143328E+00  9.67611909E-01 -1.44876412E-03  0.00000000E+00  9.67612982E-01  2.43626237E+00  1.31587911E+00 -8.10693800E-02  2.18721747E-01  0.00000000E+00
 1  1.05009997E+00  2.11250000E-02  0.00000000E+00  1.85148799E+00  9.67507958E-01 -1.49367109E-03  0.00000000E+00  9.67509091E-01  2.43642497E+00  1.31592810E+00 -8.19579735E-02  2.18721747E-01  0.00000000E+00
 1  1.05009997E+00  2.13750005E-02  0.00000000E+00  1.85154259E+00  9.67403948E-01 -1.53857807E-03  0.00000000E+00  9.67405200E-01  2.43658781E+00  1.31597722E+00 -8.28465670E-02  2.18721747E-01  0.00000000E+00
 1  1.05009997E+00  2.16249991E-02  0.00000000E+00  1.85159731E+00  9.67299998E-01 -1.58348505E-03  0.00000000E+00  9.67301309E-01  2.43675065E+00  1.31602621E+00 -8.37351605E-02  2.18721747E-01  0.00000000E+00
 1  1.05009997E+00  2.18749996E-02  0.00000000E+00  1.85165203E+00  9.67196047E-01 -1.62839214E-03  0.00000000E+00  9.67197418E-01  2.43691325E+00  1.31607521E+00 -8.46237540E-02  2.18721747E-01  0.00000000E+00
 1  1.05009997E+00  2.21250001E-02  0.00000000E+00  1.85170662E+00  9.67092037E-01 -1.67329912E-03  0.00000000E+00  9.67093527E-01  2.43707609E+00  1.31612432E+00 -8.55123475E-02  2.18721747E-01  0.00000000E+00
 1  1.05009997E+00  2.23750006E-02  0.00000000E+00  1.85176134E+00  9.66988087E-01 -1.71820610E-03  0.00000000E+00  9.66989636E-01  2.43723893E+00  1.31617332E+00 -8.64009410E-02  2.18721747E-01  0.00000000E+00
 1  1.05009997E+00  2.26249993E-02  0.00000000E+00  1.85181606E+00  9.66884136E-01 -1.76311308E-03  0.00000000E+00  9.66885746E-01  2.43740177E+00  1.31622231E+00 -8.72895345E-02  2.18721747E-01  0.00000000E+00
 1  1.05009997E+00  2.28749998E-02  0.00000000E+00  1.85187066E+00  9.66780126E-01 -1.80802005E-03  0.00000000E+00  9.66781855E-01  2.43756437E+00  1.31627142E+00 -8.81781280E-02  2.18721747E-01  0.00000000E+00
 1  1.05009997E+00  2.31250003E-02  0.00000000E+00  1.85192537E+00  9.66676176E-01 -1.85292703E-03  0.00000000E+00  9.66677964E-01  2.43772721E+00  1.31632042E+00 -8.90667215E-02  2.18721747E-01  0.00000000E+00
 1  1.05009997E+00  2.33750008E-02  0.00000000E+00  1.85198009E+00  9.66572225E-01 -1.89783401E-03  0.00000000E+00  9.66574073E-01  2.43789005E+00  1.31636953E+00 -8.99553150E-02  2.18721747E-01  0.00000000E+00
 1  1.05009997E+00  2.36249994E-02  0.00000000E+00  1.85203481E+00  9.66468215E-01 -1.94274110E-03  0.00000000E+00  9.66470182E-01  2.43805289E+00  1.31641853E+00 -9.08439085E-02  2.18721747E-01  0.00000000E+00
 1  1.05009997E+00  2.38750000E-02  0.00000000E+00  1.85208941E+00  9.66364264E-01 -1.98764796E-03  0.00000000E+00  9.66366291E-01  2.43821573E+00  1.31646752E+00 -9.17325020E-02  2.18721747E-01  0.00000000E+00
 1  1.05009997E+00  2.41250005E-02  0.00000000E+00  1.85214412E+00  9.66260314E-01 -2.03255494E-03  0.00000000E+00  9.66262460E-01  2.43837857E+00  1.31651664E+00 -9.26210955E-02  2.18721747E-01  0.00000000E+00
 1  1.05009997E+00  2.43749991E-02  0.00000000E+00  1.85219884E+00  9.66156363E-01 -2.07746215E-03  0.00000000E+00  9.66158569E-01  2.43854141E+00  1.31656563E+00 -9.35096890E-02  2.18721747E-01  0.00000000E+00
 1  1.05009997E+00  2.46249996E-02  0.00000000E+00  1.85225344E+00  9.66052353E-01 -2.12236913E-03  0.00000000E+00  9.66054678E-01  2.43870425E+00  1.31661475E+00 -9.43982825E-02  2.18721747E-01  0.00000000E+00
 1  1.05009997E+00  2.48750001E-02  0.00000000E+00  1.85230815E+00  9.65948403E-01 -2.16727611E-03  0.00000000E+00  9.65950847E-01  2.43886685E+00  1.31666374E+00 -9.52868760E-02  2.18721747E-01  0.00000000E+00
 1  1.05009997E+00  2.51250006E-02  0.00000000E+00  1.85236287E+00  9.65844452E-01 -2.21218308E-03  0.00000000E+00  9.65846956E-01  2.43902969E+00  1.31671274E+00 -9.61754695E-02  2.18721747E-01  0.00000000E+00
 1  1.05009997E+00  2.53749993E-02  0.00000000E+00  1.85241747E+00  9.65740442E-01 -2.25709006E-03  0.00000000E+00  9.65743065E-01  2.43919253E+00  1.31676185E+00 -9.70640630E-02  2.18721747E-01  0.00000000E+00
 1  1.05009997E+00  2.56249998E-02  0.00000000E+00  1.85247219E+00  9.65636492E-01 -2.30199704E-03  0.00000000E+00  9.65639234E-01  2.43935537E+00  1.31681085E+00 -9.79526564E-02  2.18721747E-01  0.00000000E+00
 1  1.05009997E+00  2.58750003E-02  0.00000000E+00  1.85252690E+00  9.65532541E-01 -2.34690402E-03  0.00000000E+00  9.65535343E-01  2.43951845E+00  1.31685984E+00 -9.88412499E-02  2.18721747E-01  0.00000000E+00
 1  1.05009997E+00  2.61250008E-02  0.00000000E+00  1.85258150E+00  9.65428531E-01 -2.39181099E-03  0.00000000E+00  9.65431511E-01  2.43968129E+00  1.31690896E+00 -9.97298434E-02  2.18721747E-01  0.00000000E+00
 1  1.05009997E+00  2.63749994E-02  0.00000000E+00  1.85263622E+00  9.65324581E-01 -2.43671797E-03  0.00000000E+00  9.65327680E-01  2.43984413E+00  1.31695795E+00 -1.00618437E-01  2.18721747E-01  0.00000000E+00
 1  1.05009997E+00  2.66249999E-02  0.00000000E+00  1.85269094E+00  9.65220630E-01 -2.48162495E-03  0.00000000E+00  9.65223789E-01  2.44000697E+00  1.31700706E+00 -1.01507030E-01  2.18721747E-01  0.00000000E+00
 1  1.05009997E+00  2.68750004E-02  0.00000000E+00  1.85274565E+00  9.65116620E-01 -2.52653193E-03  0.00000000E+00  9.65119958E-01  2.44016981E+00  1.31705606E+00 -1.02395624E-01  2.18721747E-01  0.00000000E+00
 1  1.05009997E+00  2.71249991E-02  0.00000000E+00  1.85280025E+00  9.65012670E-01 -2.57143890E-03  0.00000000E+00  9.65016067E-01  2.44033265E+00  1.31710505E+00 -1.03284217E-01  2.18721747E-01  0.00000000E+00
 1  1.05009997E+00  2.73749996E-02  0.00000000E+00  1.85285497E+00  9.64908719E-01 -2.61634588E-03  0.00000000E+00  9.64912236E-01  2.44049549E+00  1.31715417E+00 -1.04172811E-01  2.18721747E-01  0.00000000E+00
 1  1.05009997E+00  2.76250001E-02  0.00000000E+00  1.85290968E+00  9.64804709E-01 -2.66125286E-03  0.00000000E+00  9.64808404E-01  2.44065857E+00  1.31720316E+00 -1.05061404E-01  2.18721747E-01  0.00000000E+00
 1  1.05009997E+00  2.78750006E-02  0.00000000E+00  1.85296428E+00  9.64700758E-01 -2.70616007E-03  0.00000000E+00  9.64704573E-01  2.44082141E+00  1.31725216E+00 -1.05949998E-01  2.18721747E-01  0.00000000E+00
 1  1.05009997E+00  2.81249993E-02  0.00000000E+00  1.85301900E+00  9.64596808E-01 -2.75106705E-03  0.00000000E+00  9.64600682E-01  2.44098425E+00  1.31730127E+00 -1.06838591E-01  2.18721747E-01  0.00000000E+00
 1  1.05009997E+00  2.83749998E-02  0.00000000E+00  1.85307372E+00  9.64492798E-01 -2.79597403E-03  0.00000000E+00  9.64496851E-01  2.44114709E+00  1.31735027E+00 -1.07727185E-01  2.18721747E-01  0.00000000E+00
 1  1.05009997E+00  2.86250003E-02  0.00000000E+00  1.85312831E+00  9.64388847E-01 -2.84088100E-03  0.00000000E+00  9.64393020E-01  2.44131017E+00  1.31739938E+00 -1.08615778E-01  2.18721747E-01  0.00000000E+00
 1  1.05009997E+00  2.88750008E-02  0.00000000E+00  1.85318303E+00  9.64284897E-01 -2.88578798E-03  0.00000000E+00  9.64289188E-01  2.44147301E+00  1.31744838E+00 -1.09504372E-01  2.18721747E-01  0.00000000E+00
 1  1.05009997E+00  2.91249994E-02  0.00000000E+00  1.85323775E+00  9.64180887E-01 -2.93069496E-03  0.00000000E+00  9.64185357E-01  2.44163585E+00  1.31749737E+00 -1.10392958E-01  2.18721747E-01  0.00000000E+00
 1  1.05009997E+00  2.93749999E-02  0.00000000E+00  1.85329235E+00  9.64076936E-01 -2.97560194E-03  0.00000000E+00  9.64081526E-01  2.44179893E+00  1.31754649E+00 -1.11281551E-01  2.18721747E-01  0.00000000E+00
 1  1.05009997E+00  2.96250004E-02  0.00000000E+00  1.85334706E+00  9.63972986E-01 -3.02050891E-03  0.00000000E+00  9.63977695E-01  2.44196177E+00  1.31759548E+00 -1.12170145E-01  2.18721747E-01  0.00000000E+00
 1  1.05009997E+00  2.98749991E-02  0.00000000E+00  1.85340178E+00  9.63868976E-01 -3.06541589E-03  0.00000000E+00  9.63873863E-01  2.44212461E+00  1.31764460E+00 -1.13058738E-01  2.18721747E-01  0.00000000E+00
 1  1.05009997E+00  3.01249996E-02  0.00000000E+00  1.85348034E+00  9.63816524E-01 -3.11884633E-03  0.00000000E+00  9.63821530E-01  2.44230294E+00  1.31768477E+00 -1.13954633E-01  4.09507573E-01  0.00000000E+00
 1  1.05009997E+00  3.03750001E-02  0.00000000E+00  1.85358262E+00  9.63815451E-01 -3.18080047E-03  0.00000000E+00  9.63820696E-01  2.44249606E+00  1.31771636E+00 -1.14857830E-01  4.09507573E-01  0.00000000E+00
 1  1.05009997E+00  3.06250006E-02  0.00000000E+00  1.85368502E+00  9.63814437E-01 -3.24275438E-03  0.00000000E+00  9.63819861E-01  2.44268942E+00  1.31774783E+00 -1.15761019E-01  4.09507573E-01  0.00000000E+00
 1  1.05009997E+00  3.08749992E-02  0.00000000E+00  1.85378742E+00  9.63813424E-01 -3.30470828E-03  0.00000000E+00  9.63819087E-01  2.44288278E+00  1.31777930E+00 -1.16664216E-01  4.09507573E-01  0.00000000E+00
 1  1.05009997E+00  3.11249997E-02  0.00000000E+00  1.85388982E+00  9.63812351E-01 -3.36666219E-03  0.00000000E+00  9.63818252E-01  2.44307613E+00  1.31781089E+00 -1.17567405E-01  4.09507573E-01  0.00000000E+00
 1  1.05009997E+00  3.13749984E-02  0.00000000E+00  1.85399222E+00  9.63811338E-01 -3.42861610E-03  0.00000000E+00  9.63817418E-01  2.44326949E+00  1.31784236E+00 -1.18470602E-01  4.09507573E-01  0.00000000E+00
 1  1.05009997E+00  3.16249989E-02  0.00000000E+00  1.85409451E+00  9.63810265E-01 -3.49057023E-03  0.00000000E+00  9.63816643E-01  2.44346261E+00  1.31787384E+00 -1.19373791E-01  4.09507573E-01  0.00000000E+00
 1  1.05009997E+00  3.18749994E-02  0.00000000E+00  1.85419691E+00  9.63809252E-01 -3.55252414E-03  0.00000000E+00  9.63815808E-01  2.44365597E+00  1.31790531E+00 -1.20276988E-01  4.09507573E-01  0.00000000E+00
 1  1.05009997E+00  3.21249999E-02  0.00000000E+00  1.85429931E+00  9.63808239E-01 -3.61447805E-03  0.00000000E+00  9.63815033E-01  2.44384933E+00  1.31793690E+00 -1.21180177E-01  4.09507573E-01  0.00000000E+00
 1  1.05009997E+00  3.23750004E-02  0.00000000E+00  1.85440171E+00  9.63807166E-01 -3.67643195E-03  0.00000000E+00  9.63814199E-01  2.44404268E+00  1.31796837E+00 -1.22083373E-01  4.09507573E-01  0.00000000E+00
 1  1.05009997E+00  3.26250009E-02  0.00000000E+00  1.85450411E+00  9.63806152E-01 -3.73838586E-03  0.00000000E+00  9.63813424E-01  2.44423604E+00  1.31799984E+00 -1.22986570E-01  4.09507573E-01  0.00000000E+00
 1  1.05009997E+00  3.28750014E-02  0.00000000E+00  1.85460639E+00  9.63805139E-01 -3.80034000E-03  0.00000000E+00  9.63812590E-01  2.44442940E+00  1.31803143E+00 -1.23889759E-01  4.09507573E-01  0.00000000E+00
 1  1.05009997E+00  3.31249982E-02  0.00000000E+00  1.85470879E+00  9.63804066E-01 -3.86229390E-03  0.00000000E+00  9.63811815E-01  2.44462276E+00  1.31806290E+00 -1.24792956E-01  4.09507573E-01  0.00000000E+00
 1  1.05009997E+00  3.33749987E-02  0.00000000E+00  1.85481119E+00  9.63803053E-01 -3.92424781E-03  0.00000000E+00  9.63811040E-01  2.44481611E+00  1.31809437E+00 -1.25696152E-01  4.09507573E-01  0.00000000E+00
 1  1.05009997E+00  3.36249992E-02  0.00000000E+00  1.85491359E+00  9.63802040E-01 -3.98620171E-03  0.00000000E+00  9.63810265E-01  2.44500971E+00  1.31812584E+00 -1.26599342E-01  4.09507573E-01  0.00000000E+00
 1  1.05009997E+00  3.38749997E-02  0.00000000E+00  1.85501599E+00  9.63800967E-01 -4.04815562E-03  0.00000000E+00  9.63809490E-01  2.44520307E+00  1.31815743E+00 -1.27502531E-01  4.09507573E-01  0.00000000E+00
 1  1.05009997E+00  3.41250002E-02  0.00000000E+00  1.85511827E+00  9.63799953E-01 -4.11010953E-03  0.00000000E+00  9.63808715E-01  2.44539642E+00  1.31818891E+00 -1.28405720E-01  4.09507573E-01  0.00000000E+00
 1  1.05009997E+00  3.43750007E-02  0.00000000E+00  1.85522068E+00  9.63798940E-01 -4.17206343E-03  0.00000000E+00  9.63807940E-01  2.44558978E+00  1.31822038E+00 -1.29308924E-01  4.09507573E-01  0.00000000E+00
 1  1.05009997E+00  3.46250013E-02  0.00000000E+00  1.85532308E+00  9.63797867E-01 -4.23401780E-03  0.00000000E+00  9.63807166E-01  2.44578314E+00  1.31825197E+00 -1.30212113E-01  4.09507573E-01  0.00000000E+00
 1  1.05009997E+00  3.48750018E-02  0.00000000E+00  1.85542548E+00  9.63796854E-01 -4.29597171E-03  0.00000000E+00  9.63806450E-01  2.44597650E+00  1.31828344E+00 -1.31115302E-01  4.09507573E-01  0.00000000E+00