# CoordinateSystem = xByUzL
# Units = ISS
VARIABLES = "Found","X","Y","Z","Density","VelocityX","VelocityY","VelocityZ","VelocityMag","Pressure","Temperature","DensityGradientX","DensityGradientY","DensityGradientZ"
ZONE T="t = 7.00000000E-01",I=4000,SOLUTIONTIME=7.00000000E-01
 1  5.20099998E-01  1.25000006E-04  0.00000000E+00  1.94309807E+00  8.67145300E-01 -1.33016831E-04  0.00000000E+00  8.67145300E-01  2.64184380E+00  1.35960388E+00 -5.00199378E-01  3.79771233E+00  0.00000000E+00
 1  5.20099998E-01  3.75000003E-04  0.00000000E+00  1.94404757E+00  8.69549274E-01 -2.45837669E-04  0.00000000E+00  8.69549334E-01  2.64178610E+00  1.35891020E+00 -4.65361059E-01  3.79771233E+00  0.00000000E+00
 1  5.20099998E-01  6.24999986E-04  0.00000000E+00  1.94499695E+00  8.71953309E-01 -3.58658523E-04  0.00000000E+00  8.71953368E-01  2.64172673E+00  1.35821640E+00 -4.30522740E-01  3.79771233E+00  0.00000000E+00
 1  5.20099998E-01  8.75000027E-04  0.00000000E+00  1.94594646E+00  8.74357283E-01 -4.71479376E-04  0.00000000E+00  8.74357402E-01  2.64166641E+00  1.35752261E+00 -3.95684421E-01  3.79771233E+00  0.00000000E+00
 1  5.20099998E-01  1.12499995E-03  0.00000000E+00  1.94689584E+00  8.76761258E-01 -5.84300258E-04  0.00000000E+00  8.76761496E-01  2.64160442E+00  1.35682893E+00 -3.60846102E-01  3.79771233E+00  0.00000000E+00
 1  5.20099998E-01  1.37499999E-03  0.00000000E+00  1.94784522E+00  8.79165292E-01 -6.97121082E-04  0.00000000E+00  8.79165590E-01  2.64154148E+00  1.35613513E+00 -3.26007783E-01  3.79771233E+00  0.00000000E+00
 1  5.20099998E-01  1.62500003E-03  0.00000000E+00  1.94879472E+00  8.81569266E-01 -8.09941965E-04  0.00000000E+00  8.81569684E-01  2.64147687E+00  1.35544133E+00 -2.91169435E-01  3.79771233E+00  0.00000000E+00
 1  5.20099998E-01  1.87499996E-03  0.00000000E+00  1.94974411E+00  8.83973300E-01 -9.22762789E-04  0.00000000E+00  8.83973777E-01  2.64141107E+00  1.35474765E+00 -2.56331116E-01  3.79771233E+00  0.00000000E+00
 1  5.20099998E-01  2.12500012E-03  0.00000000E+00  1.95028543E+00  8.85411739E-01 -1.04200933E-03  0.00000000E+00  8.85412395E-01  2.64139271E+00  1.35436213E+00 -2.33315721E-01  5.32502115E-01  0.00000000E+00
 1  5.20099998E-01  2.37499992E-03  0.00000000E+00  1.95041847E+00  8.85884702E-01 -1.16768153E-03  0.00000000E+00  8.85885477E-01  2.64142251E+00  1.35428500E+00 -2.22123250E-01  5.32502115E-01  0.00000000E+00
 1  5.20099998E-01  2.62499996E-03  0.00000000E+00  1.95055163E+00  8.86357665E-01 -1.29335362E-03  0.00000000E+00  8.86358559E-01  2.64145255E+00  1.35420787E+00 -2.10930780E-01  5.32502115E-01  0.00000000E+00
 1  5.20099998E-01  2.87500001E-03  0.00000000E+00  1.95068479E+00  8.86830568E-01 -1.41902582E-03  0.00000000E+00  8.86831701E-01  2.64148235E+00  1.35413074E+00 -1.99738309E-01  5.32502115E-01  0.00000000E+00
 1  5.20099998E-01  3.12500005E-03  0.00000000E+00  1.95081794E+00  8.87303531E-01 -1.54469803E-03  0.00000000E+00  8.87304842E-01  2.64151216E+00  1.35405362E+00 -1.88545838E-01  5.32502115E-01  0.00000000E+00
 1  5.20099998E-01  3.37500009E-03  0.00000000E+00  1.95095098E+00  8.87776434E-01 -1.67037023E-03  0.00000000E+00  8.87778044E-01  2.64154196E+00  1.35397649E+00 -1.77353367E-01  5.32502115E-01  0.00000000E+00
 1  5.20099998E-01  3.62499990E-03  0.00000000E+00  1.95108414E+00  8.88249397E-01 -1.79604243E-03  0.00000000E+00  8.88251185E-01  2.64157152E+00  1.35389936E+00 -1.66160882E-01  5.32502115E-01  0.00000000E+00
 1  5.20099998E-01  3.87499994E-03  0.00000000E+00  1.95121729E+00  8.88722301E-01 -1.92171463E-03  0.00000000E+00  8.88724387E-01  2.64160132E+00  1.35382223E+00 -1.54968411E-01  5.32502115E-01  0.00000000E+00
 1  5.20099998E-01  4.12499998E-03  0.00000000E+00  1.95121169E+00  8.88666749E-01 -2.07941514E-03  0.00000000E+00  8.88669193E-01  2.64164186E+00  1.35384691E+00 -1.32108271E-01 -5.77002406E-01  0.00000000E+00
 1  5.20099998E-01  4.37500002E-03  0.00000000E+00  1.95106745E+00  8.88082683E-01 -2.26914394E-03  0.00000000E+00  8.88085604E-01  2.64169335E+00  1.35397339E+00 -9.75804478E-02 -5.77002406E-01  0.00000000E+00
 1  5.20099998E-01  4.62500006E-03  0.00000000E+00  1.95092320E+00  8.87498617E-01 -2.45887297E-03  0.00000000E+00  8.87502015E-01  2.64174485E+00  1.35409987E+00 -6.30526245E-02 -5.77002406E-01  0.00000000E+00
 1  5.20099998E-01  4.87500010E-03  0.00000000E+00  1.95077896E+00  8.86914551E-01 -2.64860177E-03  0.00000000E+00  8.86918485E-01  2.64179611E+00  1.35422635E+00 -2.85248030E-02 -5.77002406E-01  0.00000000E+00
 1  5.20099998E-01  5.12500014E-03  0.00000000E+00  1.95063472E+00  8.86330485E-01 -2.83833081E-03  0.00000000E+00  8.86335015E-01  2.64184761E+00  1.35435283E+00  6.00301893E-03 -5.77002406E-01  0.00000000E+00
 1  5.20099998E-01  5.37500018E-03  0.00000000E+00  1.95049047E+00  8.85746419E-01 -3.02805961E-03  0.00000000E+00  8.85751605E-01  2.64189887E+00  1.35447919E+00  4.05308418E-02 -5.77002406E-01  0.00000000E+00
 1  5.20099998E-01  5.62500022E-03  0.00000000E+00  1.95034623E+00  8.85162354E-01 -3.21778865E-03  0.00000000E+00  8.85168195E-01  2.64195013E+00  1.35460567E+00  7.50586614E-02 -5.77002406E-01  0.00000000E+00
 1  5.20099998E-01  5.87499980E-03  0.00000000E+00  1.95020199E+00  8.84578288E-01 -3.40751745E-03  0.00000000E+00  8.84584844E-01  2.64200139E+00  1.35473216E+00  1.09586485E-01 -5.77002406E-01  0.00000000E+00
 1  5.20099998E-01  6.12499984E-03  0.00000000E+00  1.95020819E+00  8.84398460E-01 -3.65640433E-03  0.00000000E+00  8.84406030E-01  2.64205265E+00  1.35475409E+00  1.49676785E-01  6.26608014E-01  0.00000000E+00
 1  5.20099998E-01  6.37499988E-03  0.00000000E+00  1.95036483E+00  8.84622872E-01 -3.96444881E-03  0.00000000E+00  8.84631813E-01  2.64210391E+00  1.35467160E+00  1.95329562E-01  6.26608014E-01  0.00000000E+00
 1  5.20099998E-01  6.62499992E-03  0.00000000E+00  1.95052147E+00  8.84847343E-01 -4.27249353E-03  0.00000000E+00  8.84857655E-01  2.64215493E+00  1.35458910E+00  2.40982339E-01  6.26608014E-01  0.00000000E+00
 1  5.20099998E-01  6.87499996E-03  0.00000000E+00  1.95067811E+00  8.85071754E-01 -4.58053825E-03  0.00000000E+00  8.85083616E-01  2.64220619E+00  1.35450649E+00  2.86635101E-01  6.26608014E-01  0.00000000E+00
 1  5.20099998E-01  7.12500000E-03  0.00000000E+00  1.95083475E+00  8.85296226E-01 -4.88858251E-03  0.00000000E+00  8.85309696E-01  2.64225745E+00  1.35442400E+00  3.32287878E-01  6.26608014E-01  0.00000000E+00
 1  5.20099998E-01  7.37500004E-03  0.00000000E+00  1.95099139E+00  8.85520637E-01 -5.19662723E-03  0.00000000E+00  8.85535896E-01  2.64230847E+00  1.35434139E+00  3.77940655E-01  6.26608014E-01  0.00000000E+00
 1  5.20099998E-01  7.62500009E-03  0.00000000E+00  1.95114803E+00  8.85745108E-01 -5.50467195E-03  0.00000000E+00  8.85762215E-01  2.64235950E+00  1.35425889E+00  4.23593432E-01  6.26608014E-01  0.00000000E+00
 1  5.20099998E-01  7.87500013E-03  0.00000000E+00  1.95130467E+00  8.85969520E-01 -5.81271667E-03  0.00000000E+00  8.85988593E-01  2.64241076E+00  1.35417628E+00  4.69246209E-01  6.26608014E-01  0.00000000E+00
 1  5.20099998E-01  8.12499970E-03  0.00000000E+00  1.95149577E+00  8.86240065E-01 -6.18107105E-03  0.00000000E+00  8.86261642E-01  2.64244246E+00  1.35406005E+00  5.12703657E-01  9.01995838E-01  0.00000000E+00
 1  5.20099998E-01  8.37500021E-03  0.00000000E+00  1.95172131E+00  8.86556745E-01 -6.60973508E-03  0.00000000E+00  8.86581361E-01  2.64245510E+00  1.35391009E+00  5.53965807E-01  9.01995838E-01  0.00000000E+00
 1  5.20099998E-01  8.62499978E-03  0.00000000E+00  1.95194674E+00  8.86873364E-01 -7.03839911E-03  0.00000000E+00  8.86901319E-01  2.64246774E+00  1.35376012E+00  5.95227897E-01  9.01995838E-01  0.00000000E+00
 1  5.20099998E-01  8.87500029E-03  0.00000000E+00  1.95217228E+00  8.87190044E-01 -7.46706314E-03  0.00000000E+00  8.87221456E-01  2.64248013E+00  1.35361016E+00  6.36489987E-01  9.01995838E-01  0.00000000E+00
 1  5.20099998E-01  9.12499987E-03  0.00000000E+00  1.95239782E+00  8.87506723E-01 -7.89572671E-03  0.00000000E+00  8.87541831E-01  2.64249253E+00  1.35346007E+00  6.77752137E-01  9.01995838E-01  0.00000000E+00
 1  5.20099998E-01  9.37500037E-03  0.00000000E+00  1.95262325E+00  8.87823343E-01 -8.32439121E-03  0.00000000E+00  8.87862384E-01  2.64250493E+00  1.35331011E+00  7.19014227E-01  9.01995838E-01  0.00000000E+00
 1  5.20099998E-01  9.62499995E-03  0.00000000E+00  1.95284879E+00  8.88140023E-01 -8.75305571E-03  0.00000000E+00  8.88183177E-01  2.64251709E+00  1.35316014E+00  7.60276318E-01  9.01995838E-01  0.00000000E+00
 1  5.20099998E-01  9.87500045E-03  0.00000000E+00  1.95307434E+00  8.88456702E-01 -9.18171927E-03  0.00000000E+00  8.88504088E-01  2.64252925E+00  1.35301018E+00  8.01538467E-01  9.01995838E-01  0.00000000E+00
 1  5.20099998E-01  1.01250000E-02  0.00000000E+00  1.95332205E+00  8.88816774E-01 -9.64188576E-03  0.00000000E+00  8.88869047E-01  2.64251351E+00  1.35283041E+00  8.27307940E-01  1.08007181E+00  0.00000000E+00
 1  5.20099998E-01  1.03749996E-02  0.00000000E+00  1.95359206E+00  8.89220238E-01 -1.01335552E-02  0.00000000E+00  8.89277995E-01  2.64246964E+00  1.35262096E+00  8.37584734E-01  1.08007181E+00  0.00000000E+00
 1  5.20099998E-01  1.06250001E-02  0.00000000E+00  1.95386207E+00  8.89623702E-01 -1.06252246E-02  0.00000000E+00  8.89687181E-01  2.64242554E+00  1.35241151E+00  8.47861528E-01  1.08007181E+00  0.00000000E+00
 1  5.20099998E-01  1.08749997E-02  0.00000000E+00  1.95413208E+00  8.90027225E-01 -1.11168940E-02  0.00000000E+00  8.90096605E-01  2.64238143E+00  1.35220206E+00  8.58138382E-01  1.08007181E+00  0.00000000E+00
 1  5.20099998E-01  1.11250002E-02  0.00000000E+00  1.95440209E+00  8.90430689E-01 -1.16085634E-02  0.00000000E+00  8.90506327E-01  2.64233732E+00  1.35199261E+00  8.68415177E-01  1.08007181E+00  0.00000000E+00
 1  5.20099998E-01  1.13749998E-02  0.00000000E+00  1.95467210E+00  8.90834153E-01 -1.21002328E-02  0.00000000E+00  8.90916348E-01  2.64229298E+00  1.35178328E+00  8.78691971E-01  1.08007181E+00  0.00000000E+00
 1  5.20099998E-01  1.16250003E-02  0.00000000E+00  1.95494211E+00  8.91237676E-01 -1.25919022E-02  0.00000000E+00  8.91326606E-01  2.64224863E+00  1.35157382E+00  8.88968825E-01  1.08007181E+00  0.00000000E+00
 1  5.20099998E-01  1.18749999E-02  0.00000000E+00  1.95521212E+00  8.91641140E-01 -1.30835716E-02  0.00000000E+00  8.91737103E-01  2.64220405E+00  1.35136437E+00  8.99245620E-01  1.08007181E+00  0.00000000E+00
 1  5.20099998E-01  1.21250004E-02  0.00000000E+00  1.95548654E+00  8.92017484E-01 -1.35479579E-02  0.00000000E+00  8.92120361E-01  2.64216328E+00  1.35115385E+00  8.81702662E-01  1.11517704E+00  0.00000000E+00
 1  5.20099998E-01  1.23749999E-02  0.00000000E+00  1.95576537E+00  8.92366707E-01 -1.39850620E-02  0.00000000E+00  8.92476320E-01  2.64212656E+00  1.35094249E+00  8.36340010E-01  1.11517704E+00  0.00000000E+00
 1  5.20099998E-01  1.26250004E-02  0.00000000E+00  1.95604420E+00  8.92715931E-01 -1.44221652E-02  0.00000000E+00  8.92832458E-01  2.64208961E+00  1.35073102E+00  7.90977359E-01  1.11517704E+00  0.00000000E+00
 1  5.20099998E-01  1.28750000E-02  0.00000000E+00  1.95632291E+00  8.93065155E-01 -1.48592684E-02  0.00000000E+00  8.93188775E-01  2.64205241E+00  1.35051954E+00  7.45614648E-01  1.11517704E+00  0.00000000E+00
 1  5.20099998E-01  1.31249996E-02  0.00000000E+00  1.95660174E+00  8.93414378E-01 -1.52963717E-02  0.00000000E+00  8.93545330E-01  2.64201522E+00  1.35030806E+00  7.00251997E-01  1.11517704E+00  0.00000000E+00
 1  5.20099998E-01  1.33750001E-02  0.00000000E+00  1.95688057E+00  8.93763602E-01 -1.57334749E-02  0.00000000E+00  8.93902063E-01  2.64197803E+00  1.35009670E+00  6.54889345E-01  1.11517704E+00  0.00000000E+00
 1  5.20099998E-01  1.36249997E-02  0.00000000E+00  1.95715940E+00  8.94112825E-01 -1.61705781E-02  0.00000000E+00  8.94259036E-01  2.64194059E+00  1.34988523E+00  6.09526634E-01  1.11517704E+00  0.00000000E+00
 1  5.20099998E-01  1.38750002E-02  0.00000000E+00  1.95743811E+00  8.94462049E-01 -1.66076813E-02  0.00000000E+00  8.94616246E-01  2.64190292E+00  1.34967375E+00  5.64163983E-01  1.11517704E+00  0.00000000E+00
 1  5.20099998E-01  1.41249998E-02  0.00000000E+00  1.95771432E+00  8.94727468E-01 -1.69541091E-02  0.00000000E+00  8.94888103E-01  2.64193344E+00  1.34949887E+00  4.93499607E-01  1.09465778E+00  0.00000000E+00
 1  5.20099998E-01  1.43750003E-02  0.00000000E+00  1.95798802E+00  8.94909084E-01 -1.72098614E-02  0.00000000E+00  8.95074546E-01  2.64203167E+00  1.34936047E+00  3.97533476E-01  1.09465778E+00  0.00000000E+00
 1  5.20099998E-01  1.46249998E-02  0.00000000E+00  1.95826173E+00  8.95090640E-01 -1.74656119E-02  0.00000000E+00  8.95261049E-01  2.64213014E+00  1.34922218E+00  3.01567346E-01  1.09465778E+00  0.00000000E+00
 1  5.20099998E-01  1.48750003E-02  0.00000000E+00  1.95853531E+00  8.95272255E-01 -1.77213624E-02  0.00000000E+00  8.95447612E-01  2.64222836E+00  1.34908378E+00  2.05601215E-01  1.09465778E+00  0.00000000E+00
 1  5.20099998E-01  1.51249999E-02  0.00000000E+00  1.95880902E+00  8.95453811E-01 -1.79771148E-02  0.00000000E+00  8.95634294E-01  2.64232635E+00  1.34894538E+00  1.09635085E-01  1.09465778E+00  0.00000000E+00
 1  5.20099998E-01  1.53750004E-02  0.00000000E+00  1.95908272E+00  8.95635426E-01 -1.82328653E-02  0.00000000E+00  8.95820975E-01  2.64242458E+00  1.34880710E+00  1.36689581E-02  1.09465778E+00  0.00000000E+00
 1  5.20099998E-01  1.56250000E-02  0.00000000E+00  1.95935631E+00  8.95817041E-01 -1.84886158E-02  0.00000000E+00  8.96007776E-01  2.64252257E+00  1.34866869E+00 -8.22971687E-02  1.09465778E+00  0.00000000E+00
 1  5.20099998E-01  1.58750005E-02  0.00000000E+00  1.95963001E+00  8.95998597E-01 -1.87443681E-02  0.00000000E+00  8.96194637E-01  2.64262056E+00  1.34853029E+00 -1.78263292E-01  1.09465778E+00  0.00000000E+00
 1  5.20099998E-01  1.61249992E-02  0.00000000E+00  1.95990109E+00  8.96075368E-01 -1.88892260E-02  0.00000000E+00  8.96274388E-01  2.64283133E+00  1.34845138E+00 -2.77389675E-01  1.07420433E+00  0.00000000E+00
 1  5.20099998E-01  1.63749997E-02  0.00000000E+00  1.96016967E+00  8.96047235E-01 -1.89231914E-02  0.00000000E+00  8.96247029E-01  2.64315486E+00  1.34843171E+00 -3.79676282E-01  1.07420433E+00  0.00000000E+00
 1  5.20099998E-01  1.66250002E-02  0.00000000E+00  1.96043825E+00  8.96019101E-01 -1.89571567E-02  0.00000000E+00  8.96219611E-01  2.64347863E+00  1.34841204E+00 -4.81962889E-01  1.07420433E+00  0.00000000E+00
 1  5.20099998E-01  1.68750007E-02  0.00000000E+00  1.96070683E+00  8.95991027E-01 -1.89911220E-02  0.00000000E+00  8.96192253E-01  2.64380217E+00  1.34839249E+00 -5.84249496E-01  1.07420433E+00  0.00000000E+00
 1  5.20099998E-01  1.71249993E-02  0.00000000E+00  1.96097529E+00  8.95962894E-01 -1.90250874E-02  0.00000000E+00  8.96164894E-01  2.64412594E+00  1.34837282E+00 -6.86536074E-01  1.07420433E+00  0.00000000E+00
 1  5.20099998E-01  1.73749998E-02  0.00000000E+00  1.96124387E+00  8.95934761E-01 -1.90590527E-02  0.00000000E+00  8.96137476E-01  2.64444947E+00  1.34835315E+00 -7.88822711E-01  1.07420433E+00  0.00000000E+00
 1  5.20099998E-01  1.76250003E-02  0.00000000E+00  1.96151245E+00  8.95906687E-01 -1.90930180E-02  0.00000000E+00  8.96110117E-01  2.64477301E+00  1.34833360E+00 -8.91109347E-01  1.07420433E+00  0.00000000E+00
 1  5.20099998E-01  1.78750008E-02  0.00000000E+00  1.96178102E+00  8.95878553E-01 -1.91269834E-02  0.00000000E+00  8.96082699E-01  2.64509654E+00  1.34831393E+00 -9.93395925E-01  1.07420433E+00  0.00000000E+00
 1  5.20099998E-01  1.81249995E-02  0.00000000E+00  1.96203411E+00  8.95786822E-01 -1.90978181E-02  0.00000000E+00  8.95990372E-01  2.64548659E+00  1.34833872E+00 -1.06744850E+00  9.50949132E-01  0.00000000E+00
 1  5.20099998E-01  1.83750000E-02  0.00000000E+00  1.96227181E+00  8.95631373E-01 -1.90055240E-02  0.00000000E+00  8.95833015E-01  2.64594269E+00  1.34840786E+00 -1.11326694E+00  9.50949132E-01  0.00000000E+00
 1  5.20099998E-01  1.86250005E-02  0.00000000E+00  1.96250963E+00  8.95475984E-01 -1.89132281E-02  0.00000000E+00  8.95675659E-01  2.64639902E+00  1.34847701E+00 -1.15908539E+00  9.50949132E-01  0.00000000E+00
 1  5.20099998E-01  1.88749991E-02  0.00000000E+00  1.96274734E+00  8.95320535E-01 -1.88209321E-02  0.00000000E+00  8.95518363E-01  2.64685535E+00  1.34854603E+00 -1.20490396E+00  9.50949132E-01  0.00000000E+00
 1  5.20099998E-01  1.91249996E-02  0.00000000E+00  1.96298504E+00  8.95165145E-01 -1.87286362E-02  0.00000000E+00  8.95361006E-01  2.64731145E+00  1.34861517E+00 -1.25072241E+00  9.50949132E-01  0.00000000E+00
 1  5.20099998E-01  1.93750001E-02  0.00000000E+00  1.96322286E+00  8.95009696E-01 -1.86363403E-02  0.00000000E+00  8.95203710E-01  2.64776802E+00  1.34868431E+00 -1.29654086E+00  9.50949132E-01  0.00000000E+00
 1  5.20099998E-01  1.96250007E-02  0.00000000E+00  1.96346056E+00  8.94854307E-01 -1.85440462E-02  0.00000000E+00  8.95046413E-01  2.64822435E+00  1.34875345E+00 -1.34235930E+00  9.50949132E-01  0.00000000E+00
 1  5.20099998E-01  1.98749993E-02  0.00000000E+00  1.96369827E+00  8.94698858E-01 -1.84517503E-02  0.00000000E+00  8.94889116E-01  2.64868069E+00  1.34882259E+00 -1.38817787E+00  9.50949132E-01  0.00000000E+00
 1  5.20099998E-01  2.01249998E-02  0.00000000E+00  1.96387076E+00  8.94560695E-01 -1.83861274E-02  0.00000000E+00  8.94749641E-01  2.64904428E+00  1.34888935E+00 -1.38408816E+00  4.29283619E-01  0.00000000E+00
 1  5.20099998E-01  2.03750003E-02  0.00000000E+00  1.96397817E+00  8.94439697E-01 -1.83471795E-02  0.00000000E+00  8.94627869E-01  2.64931536E+00  1.34895360E+00 -1.33009040E+00  4.29283619E-01  0.00000000E+00
 1  5.20099998E-01  2.06250008E-02  0.00000000E+00  1.96408546E+00  8.94318759E-01 -1.83082316E-02  0.00000000E+00  8.94506097E-01  2.64958620E+00  1.34901774E+00 -1.27609277E+00  4.29283619E-01  0.00000000E+00
 1  5.20099998E-01  2.08749995E-02  0.00000000E+00  1.96419275E+00  8.94197762E-01 -1.82692837E-02  0.00000000E+00  8.94384384E-01  2.64985704E+00  1.34908199E+00 -1.22209501E+00  4.29283619E-01  0.00000000E+00
 1  5.20099998E-01  2.11250000E-02  0.00000000E+00  1.96430016E+00  8.94076824E-01 -1.82303358E-02  0.00000000E+00  8.94262671E-01  2.65012813E+00  1.34914625E+00 -1.16809726E+00  4.29283619E-01  0.00000000E+00
 1  5.20099998E-01  2.13750005E-02  0.00000000E+00  1.96440744E+00  8.93955827E-01 -1.81913879E-02  0.00000000E+00  8.94140899E-01  2.65039921E+00  1.34921050E+00 -1.11409950E+00  4.29283619E-01  0.00000000E+00
 1  5.20099998E-01  2.16249991E-02  0.00000000E+00  1.96451473E+00  8.93834889E-01 -1.81524400E-02  0.00000000E+00  8.94019186E-01  2.65067005E+00  1.34927475E+00 -1.06010187E+00  4.29283619E-01  0.00000000E+00
 1  5.20099998E-01  2.18749996E-02  0.00000000E+00  1.96462202E+00  8.93713892E-01 -1.81134921E-02  0.00000000E+00  8.93897414E-01  2.65094113E+00  1.34933901E+00 -1.00610411E+00  4.29283619E-01  0.00000000E+00
 1  5.20099998E-01  2.21250001E-02  0.00000000E+00  1.96458578E+00  8.93679202E-01 -1.81720369E-02  0.00000000E+00  8.93863916E-01  2.65092587E+00  1.34935606E+00 -9.03385699E-01 -7.19517231E-01  0.00000000E+00
 1  5.20099998E-01  2.23750006E-02  0.00000000E+00  1.96440589E+00  8.93730760E-01 -1.83280762E-02  0.00000000E+00  8.93918633E-01  2.65062428E+00  1.34932613E+00 -7.51946568E-01 -7.19517231E-01  0.00000000E+00
 1  5.20099998E-01  2.26249993E-02  0.00000000E+00  1.96422601E+00  8.93782318E-01 -1.84841137E-02  0.00000000E+00  8.93973410E-01  2.65032268E+00  1.34929609E+00 -6.00507438E-01 -7.19517231E-01  0.00000000E+00
 1  5.20099998E-01  2.28749998E-02  0.00000000E+00  1.96404612E+00  8.93833876E-01 -1.86401531E-02  0.00000000E+00  8.94028187E-01  2.65002108E+00  1.34926617E+00 -4.49068367E-01 -7.19517231E-01  0.00000000E+00
 1  5.20099998E-01  2.31250003E-02  0.00000000E+00  1.96386623E+00  8.93885434E-01 -1.87961925E-02  0.00000000E+00  8.94083023E-01  2.64971948E+00  1.34923613E+00 -2.97629237E-01 -7.19517231E-01  0.00000000E+00
 1  5.20099998E-01  2.33750008E-02  0.00000000E+00  1.96368635E+00  8.93936992E-01 -1.89522300E-02  0.00000000E+00  8.94137859E-01  2.64941788E+00  1.34920621E+00 -1.46190137E-01 -7.19517231E-01  0.00000000E+00
 1  5.20099998E-01  2.36249994E-02  0.00000000E+00  1.96350646E+00  8.93988550E-01 -1.91082694E-02  0.00000000E+00  8.94192696E-01  2.64911628E+00  1.34917617E+00  5.24897128E-03 -7.19517231E-01  0.00000000E+00
 1  5.20099998E-01  2.38750000E-02  0.00000000E+00  1.96332657E+00  8.94040108E-01 -1.92643087E-02  0.00000000E+00  8.94247591E-01  2.64881468E+00  1.34914625E+00  1.56688079E-01 -7.19517231E-01  0.00000000E+00
 1  5.20099998E-01  2.41250005E-02  0.00000000E+00  1.96297228E+00  8.94187450E-01 -1.95176527E-02  0.00000000E+00  8.94400418E-01  2.64817262E+00  1.34906268E+00  3.24675947E-01 -2.11572099E+00  0.00000000E+00
 1  5.20099998E-01  2.43749991E-02  0.00000000E+00  1.96244335E+00  8.94430637E-01 -1.98683050E-02  0.00000000E+00  8.94651234E-01  2.64719009E+00  1.34892559E+00  5.09212554E-01 -2.11572099E+00  0.00000000E+00
 1  5.20099998E-01  2.46249996E-02  0.00000000E+00  1.96191442E+00  8.94673765E-01 -2.02189572E-02  0.00000000E+00  8.94902229E-01  2.64620757E+00  1.34878850E+00  6.93749189E-01 -2.11572099E+00  0.00000000E+00
 1  5.20099998E-01  2.48750001E-02  0.00000000E+00  1.96138549E+00  8.94916952E-01 -2.05696095E-02  0.00000000E+00  8.95153284E-01  2.64522529E+00  1.34865141E+00  8.78285825E-01 -2.11572099E+00  0.00000000E+00
 1  5.20099998E-01  2.51250006E-02  0.00000000E+00  1.96085656E+00  8.95160139E-01 -2.09202617E-02  0.00000000E+00  8.95404518E-01  2.64424324E+00  1.34851432E+00  1.06282246E+00 -2.11572099E+00  0.00000000E+00
 1  5.20099998E-01  2.53749993E-02  0.00000000E+00  1.96032763E+00  8.95403266E-01 -2.12709140E-02  0.00000000E+00  8.95655870E-01  2.64326119E+00  1.34837723E+00  1.24735916E+00 -2.11572099E+00  0.00000000E+00
 1  5.20099998E-01  2.56249998E-02  0.00000000E+00  1.95979869E+00  8.95646453E-01 -2.16215663E-02  0.00000000E+00  8.95907402E-01  2.64227939E+00  1.34824014E+00  1.43189573E+00 -2.11572099E+00  0.00000000E+00
 1  5.20099998E-01  2.58750003E-02  0.00000000E+00  1.95926976E+00  8.95889640E-01 -2.19722185E-02  0.00000000E+00  8.96158993E-01  2.64129758E+00  1.34810305E+00  1.61643243E+00 -2.11572099E+00  0.00000000E+00
 1  5.20099998E-01  2.61250008E-02  0.00000000E+00  1.95867920E+00  8.96165133E-01 -2.23407540E-02  0.00000000E+00  8.96443605E-01  2.64020658E+00  1.34795249E+00  1.75463068E+00 -2.60835147E+00  0.00000000E+00
 1  5.20099998E-01  2.63749994E-02  0.00000000E+00  1.95802712E+00  8.96473110E-01 -2.27271765E-02  0.00000000E+00  8.96761119E-01  2.63900638E+00  1.34778857E+00  1.84649074E+00 -2.60835147E+00  0.00000000E+00
 1  5.20099998E-01  2.66249999E-02  0.00000000E+00  1.95737505E+00  8.96781027E-01 -2.31135972E-02  0.00000000E+00  8.97078812E-01  2.63780665E+00  1.34762454E+00  1.93835068E+00 -2.60835147E+00  0.00000000E+00
 1  5.20099998E-01  2.68750004E-02  0.00000000E+00  1.95672297E+00  8.97088945E-01 -2.35000178E-02  0.00000000E+00  8.97396684E-01  2.63660693E+00  1.34746051E+00  2.03021073E+00 -2.60835147E+00  0.00000000E+00
 1  5.20099998E-01  2.71249991E-02  0.00000000E+00  1.95607090E+00  8.97396863E-01 -2.38864403E-02  0.00000000E+00  8.97714734E-01  2.63540721E+00  1.34729648E+00  2.12207079E+00 -2.60835147E+00  0.00000000E+00
 1  5.20099998E-01  2.73749996E-02  0.00000000E+00  1.95541883E+00  8.97704780E-01 -2.42728610E-02  0.00000000E+00  8.98032904E-01  2.63420796E+00  1.34713244E+00  2.21393061E+00 -2.60835147E+00  0.00000000E+00
 1  5.20099998E-01  2.76250001E-02  0.00000000E+00  1.95476663E+00  8.98012698E-01 -2.46592816E-02  0.00000000E+00  8.98351252E-01  2.63300896E+00  1.34696841E+00  2.30579066E+00 -2.60835147E+00  0.00000000E+00
 1  5.20099998E-01  2.78750006E-02  0.00000000E+00  1.95411456E+00  8.98320675E-01 -2.50457022E-02  0.00000000E+00  8.98669720E-01  2.63181019E+00  1.34680438E+00  2.39765072E+00 -2.60835147E+00  0.00000000E+00
 1  5.20099998E-01  2.81249993E-02  0.00000000E+00  1.95364547E+00  8.98545265E-01 -2.53318865E-02  0.00000000E+00  8.98902297E-01  2.63095975E+00  1.34669244E+00  2.37676406E+00 -1.14420104E+00  0.00000000E+00
 1  5.20099998E-01  2.83749998E-02  0.00000000E+00  1.95335948E+00  8.98686588E-01 -2.55178288E-02  0.00000000E+00  8.99048805E-01  2.63045740E+00  1.34663248E+00  2.24313092E+00 -1.14420104E+00  0.00000000E+00
 1  5.20099998E-01  2.86250003E-02  0.00000000E+00  1.95307338E+00  8.98827910E-01 -2.57037729E-02  0.00000000E+00  8.99195373E-01  2.62995529E+00  1.34657264E+00  2.10949755E+00 -1.14420104E+00  0.00000000E+00
 1  5.20099998E-01  2.88750008E-02  0.00000000E+00  1.95278740E+00  8.98969233E-01 -2.58897170E-02  0.00000000E+00  8.99342000E-01  2.62945294E+00  1.34651268E+00  1.97586441E+00 -1.14420104E+00  0.00000000E+00
 1  5.20099998E-01  2.91249994E-02  0.00000000E+00  1.95250130E+00  8.99110556E-01 -2.60756612E-02  0.00000000E+00  8.99488628E-01  2.62895083E+00  1.34645283E+00  1.84223115E+00 -1.14420104E+00  0.00000000E+00
 1  5.20099998E-01  2.93749999E-02  0.00000000E+00  1.95221531E+00  8.99251878E-01 -2.62616053E-02  0.00000000E+00  8.99635315E-01  2.62844872E+00  1.34639287E+00  1.70859790E+00 -1.14420104E+00  0.00000000E+00
 1  5.20099998E-01  2.96250004E-02  0.00000000E+00  1.95192921E+00  8.99393201E-01 -2.64475495E-02  0.00000000E+00  8.99782002E-01  2.62794685E+00  1.34633303E+00  1.57496476E+00 -1.14420104E+00  0.00000000E+00
 1  5.20099998E-01  2.98749991E-02  0.00000000E+00  1.95164323E+00  8.99534583E-01 -2.66334936E-02  0.00000000E+00  8.99928749E-01  2.62744474E+00  1.34627306E+00  1.44133151E+00 -1.14420104E+00  0.00000000E+00
 1  5.20099998E-01  3.01249996E-02  0.00000000E+00  1.95176709E+00  8.99477005E-01 -2.66237240E-02  0.00000000E+00  8.99870932E-01  2.62771344E+00  1.34632528E+00  1.17851937E+00  2.13577414E+00  0.00000000E+00
 1  5.20099998E-01  3.03750001E-02  0.00000000E+00  1.95230103E+00  8.99220645E-01 -2.64182445E-02  0.00000000E+00  8.99608612E-01  2.62875295E+00  1.34648955E+00  7.86528289E-01  2.13577414E+00  0.00000000E+00
 1  5.20099998E-01  3.06250006E-02  0.00000000E+00  1.95283496E+00  8.98964226E-01 -2.62127630E-02  0.00000000E+00  8.99346352E-01  2.62979269E+00  1.34665382E+00  3.94537210E-01  2.13577414E+00  0.00000000E+00
 1  5.20099998E-01  3.08749992E-02  0.00000000E+00  1.95336890E+00  8.98707867E-01 -2.60072835E-02  0.00000000E+00  8.99084091E-01  2.63083267E+00  1.34681809E+00  2.54614628E-03  2.13577414E+00  0.00000000E+00
 1  5.20099998E-01  3.11249997E-02  0.00000000E+00  1.95390284E+00  8.98451447E-01 -2.58018021E-02  0.00000000E+00  8.98821890E-01  2.63187289E+00  1.34698236E+00 -3.89444917E-01  2.13577414E+00  0.00000000E+00
 1  5.20099998E-01  3.13749984E-02  0.00000000E+00  1.95443678E+00  8.98195088E-01 -2.55963225E-02  0.00000000E+00  8.98559690E-01  2.63291311E+00  1.34714663E+00 -7.81435966E-01  2.13577414E+00  0.00000000E+00
 1  5.20099998E-01  3.16249989E-02  0.00000000E+00  1.95497084E+00  8.97938669E-01 -2.53908411E-02  0.00000000E+00  8.98297608E-01  2.63395357E+00  1.34731090E+00 -1.17342710E+00  2.13577414E+00  0.00000000E+00
 1  5.20099998E-01  3.18749994E-02  0.00000000E+00  1.95550478E+00  8.97682309E-01 -2.51853615E-02  0.00000000E+00  8.98035526E-01  2.63499403E+00  1.34747517E+00 -1.56541812E+00  2.13577414E+00  0.00000000E+00
 1  5.20099998E-01  3.21249999E-02  0.00000000E+00  1.95652127E+00  8.97172749E-01 -2.47650873E-02  0.00000000E+00  8.97514462E-01  2.63694286E+00  1.34777105E+00 -2.03179669E+00  5.99691153E+00  0.00000000E+00
 1  5.20099998E-01  3.23750004E-02  0.00000000E+00  1.95802057E+00  8.96410048E-01 -2.41300203E-02  0.00000000E+00  8.96734774E-01  2.63980031E+00  1.34819853E+00 -2.57256269E+00  5.99691153E+00  0.00000000E+00
 1  5.20099998E-01  3.26250009E-02  0.00000000E+00  1.95951974E+00  8.95647407E-01 -2.34949533E-02  0.00000000E+00  8.95955503E-01  2.64265919E+00  1.34862602E+00 -3.11332870E+00  5.99691153E+00  0.00000000E+00
 1  5.20099998E-01  3.28750014E-02  0.00000000E+00  1.96101904E+00  8.94884706E-01 -2.28598863E-02  0.00000000E+00  8.95176649E-01  2.64551950E+00  1.34905338E+00 -3.65409470E+00  5.99691153E+00  0.00000000E+00
 1  5.20099998E-01  3.31249982E-02  0.00000000E+00  1.96251822E+00  8.94122005E-01 -2.22248193E-02  0.00000000E+00  8.94398212E-01  2.64838076E+00  1.34948087E+00 -4.19486094E+00  5.99691153E+00  0.00000000E+00
 1  5.20099998E-01  3.33749987E-02  0.00000000E+00  1.96401739E+00  8.93359363E-01 -2.15897504E-02  0.00000000E+00  8.93620193E-01  2.65124345E+00  1.34990835E+00 -4.73562670E+00  5.99691153E+00  0.00000000E+00
 1  5.20099998E-01  3.36249992E-02  0.00000000E+00  1.96551669E+00  8.92596662E-01 -2.09546834E-02  0.00000000E+00  8.92842591E-01  2.65410757E+00  1.35033572E+00 -5.27639294E+00  5.99691153E+00  0.00000000E+00
 1  5.20099998E-01  3.38749997E-02  0.00000000E+00  1.96701586E+00  8.91833961E-01 -2.03196164E-02  0.00000000E+00  8.92065406E-01  2.65697265E+00  1.35076320E+00 -5.81715870E+00  5.99691153E+00  0.00000000E+00
 1  5.20099998E-01  3.41250002E-02  0.00000000E+00  1.96882343E+00  8.90892267E-01 -1.95596833E-02  0.00000000E+00  8.91106963E-01  2.66042137E+00  1.35127461E+00 -6.30276108E+00  8.46359253E+00  0.00000000E+00
 1  5.20099998E-01  3.43750007E-02  0.00000000E+00  1.97093940E+00  8.89771461E-01 -1.86748840E-02  0.00000000E+00  8.89967382E-01  2.66445398E+00  1.35187006E+00 -6.73319912E+00  8.46359253E+00  0.00000000E+00
 1  5.20099998E-01  3.46250013E-02  0.00000000E+00  1.97305524E+00  8.88650656E-01 -1.77900847E-02  0.00000000E+00  8.88828695E-01  2.66848922E+00  1.35246551E+00 -7.16363716E+00  8.46359253E+00  0.00000000E+00
 1  5.20099998E-01  3.48750018E-02  0.00000000E+00  1.97517121E+00  8.87529850E-01 -1.69052836E-02  0.00000000E+00  8.87690842E-01  2.67252707E+00  1.35306096E+00 -7.59407520E+00  8.46359253E+00  0.00000000E+00