# CoordinateSystem = xByUzL
# Units = ISS
VARIABLES = "Found","X","Y","Z","Density","VelocityX","VelocityY","VelocityZ","VelocityMag","Pressure","Temperature","DensityGradientX","DensityGradientY","DensityGradientZ"
ZONE T="t = 7.00000000E-01",I=4000,SOLUTIONTIME=7.00000000E-01
 1  5.20099998E-01  1.25000006E-04  0.00000000E+00  1.94932950E+00  8.65506709E-01  6.51316857E-03  0.00000000E+00  8.65531266E-01  2.64932728E+00  1.35909677E+00 -2.73088503E+00  1.31470668E+00  0.00000000E+00
 1  5.20099998E-01  3.75000003E-04  0.00000000E+00  1.94965816E+00  8.66514087E-01  5.96423075E-03  0.00000000E+00  8.66534591E-01  2.64920878E+00  1.35880685E+00 -2.66516161E+00  1.31470668E+00  0.00000000E+00
 1  5.20099998E-01  6.24999986E-04  0.00000000E+00  1.94998682E+00  8.67521405E-01  5.41529339E-03  0.00000000E+00  8.67538333E-01  2.64909005E+00  1.35851693E+00 -2.59943819E+00  1.31470668E+00  0.00000000E+00
 1  5.20099998E-01  8.75000027E-04  0.00000000E+00  1.95031548E+00  8.68528724E-01  4.86635603E-03  0.00000000E+00  8.68542373E-01  2.64897132E+00  1.35822713E+00 -2.53371477E+00  1.31470668E+00  0.00000000E+00
 1  5.20099998E-01  1.12499995E-03  0.00000000E+00  1.95064414E+00  8.69536102E-01  4.31741867E-03  0.00000000E+00  8.69546771E-01  2.64885235E+00  1.35793722E+00 -2.46799135E+00  1.31470668E+00  0.00000000E+00
 1  5.20099998E-01  1.37499999E-03  0.00000000E+00  1.95097280E+00  8.70543420E-01  3.76848131E-03  0.00000000E+00  8.70551586E-01  2.64873314E+00  1.35764730E+00 -2.40226793E+00  1.31470668E+00  0.00000000E+00
 1  5.20099998E-01  1.62500003E-03  0.00000000E+00  1.95130146E+00  8.71550739E-01  3.21954396E-03  0.00000000E+00  8.71556699E-01  2.64861369E+00  1.35735750E+00 -2.33654451E+00  1.31470668E+00  0.00000000E+00
 1  5.20099998E-01  1.87499996E-03  0.00000000E+00  1.95163023E+00  8.72558057E-01  2.67060660E-03  0.00000000E+00  8.72562170E-01  2.64849401E+00  1.35706758E+00 -2.27082109E+00  1.31470668E+00  0.00000000E+00
 1  5.20099998E-01  2.12500012E-03  0.00000000E+00  1.95195889E+00  8.73565435E-01  2.12166901E-03  0.00000000E+00  8.73567998E-01  2.64837432E+00  1.35677779E+00 -2.20509768E+00  1.31470668E+00  0.00000000E+00
 1  5.20099998E-01  2.37499992E-03  0.00000000E+00  1.95228755E+00  8.74572754E-01  1.57273165E-03  0.00000000E+00  8.74574184E-01  2.64825439E+00  1.35648787E+00 -2.13937426E+00  1.31470668E+00  0.00000000E+00
 1  5.20099998E-01  2.62499996E-03  0.00000000E+00  1.95261621E+00  8.75580072E-01  1.02379429E-03  0.00000000E+00  8.75580668E-01  2.64813423E+00  1.35619795E+00 -2.07365084E+00  1.31470668E+00  0.00000000E+00
 1  5.20099998E-01  2.87500001E-03  0.00000000E+00  1.95294487E+00  8.76587451E-01  4.74856875E-04  0.00000000E+00  8.76587570E-01  2.64801383E+00  1.35590816E+00 -2.00792766E+00  1.31470668E+00  0.00000000E+00
 1  5.20099998E-01  3.12500005E-03  0.00000000E+00  1.95327353E+00  8.77594769E-01 -7.40805408E-05  0.00000000E+00  8.77594769E-01  2.64789319E+00  1.35561824E+00 -1.94220412E+00  1.31470668E+00  0.00000000E+00
 1  5.20099998E-01  3.37500009E-03  0.00000000E+00  1.95360219E+00  8.78602087E-01 -6.23017957E-04  0.00000000E+00  8.78602326E-01  2.64777255E+00  1.35532844E+00 -1.87648082E+00  1.31470668E+00  0.00000000E+00
 1  5.20099998E-01  3.62499990E-03  0.00000000E+00  1.95393085E+00  8.79609406E-01 -1.17195537E-03  0.00000000E+00  8.79610240E-01  2.64765167E+00  1.35503852E+00 -1.81075740E+00  1.31470668E+00  0.00000000E+00
 1  5.20099998E-01  3.87499994E-03  0.00000000E+00  1.95425963E+00  8.80616784E-01 -1.72089273E-03  0.00000000E+00  8.80618453E-01  2.64753056E+00  1.35474861E+00 -1.74503398E+00  1.31470668E+00  0.00000000E+00
 1  5.20099998E-01  4.12499998E-03  0.00000000E+00  1.95458829E+00  8.81624103E-01 -2.26983009E-03  0.00000000E+00  8.81627023E-01  2.64740920E+00  1.35445881E+00 -1.67931056E+00  1.31470668E+00  0.00000000E+00
 1  5.20099998E-01  4.37500002E-03  0.00000000E+00  1.95491695E+00  8.82631421E-01 -2.81876768E-03  0.00000000E+00  8.82635951E-01  2.64728761E+00  1.35416889E+00 -1.61358714E+00  1.31470668E+00  0.00000000E+00
 1  5.20099998E-01  4.62500006E-03  0.00000000E+00  1.95524561E+00  8.83638799E-01 -3.36770504E-03  0.00000000E+00  8.83645177E-01  2.64716601E+00  1.35387897E+00 -1.54786372E+00  1.31470668E+00  0.00000000E+00
 1  5.20099998E-01  4.87500010E-03  0.00000000E+00  1.95557427E+00  8.84646118E-01 -3.91664216E-03  0.00000000E+00  8.84654760E-01  2.64704418E+00  1.35358918E+00 -1.48214042E+00  1.31470668E+00  0.00000000E+00
 1  5.20099998E-01  5.12500014E-03  0.00000000E+00  1.95572066E+00  8.85344207E-01 -4.27920790E-03  0.00000000E+00  8.85354519E-01  2.64686465E+00  1.35339606E+00 -1.43527794E+00 -1.43707171E-01  0.00000000E+00
 1  5.20099998E-01  5.37500018E-03  0.00000000E+00  1.95568478E+00  8.85733008E-01 -4.45540156E-03  0.00000000E+00  8.85744214E-01  2.64662790E+00  1.35329986E+00 -1.40727639E+00 -1.43707171E-01  0.00000000E+00
 1  5.20099998E-01  5.62500022E-03  0.00000000E+00  1.95564878E+00  8.86121750E-01 -4.63159522E-03  0.00000000E+00  8.86133909E-01  2.64639115E+00  1.35320365E+00 -1.37927485E+00 -1.43707171E-01  0.00000000E+00
 1  5.20099998E-01  5.87499980E-03  0.00000000E+00  1.95561290E+00  8.86510551E-01 -4.80778888E-03  0.00000000E+00  8.86523604E-01  2.64615417E+00  1.35310745E+00 -1.35127342E+00 -1.43707171E-01  0.00000000E+00
 1  5.20099998E-01  6.12499984E-03  0.00000000E+00  1.95557702E+00  8.86899352E-01 -4.98398207E-03  0.00000000E+00  8.86913359E-01  2.64591742E+00  1.35301113E+00 -1.32327187E+00 -1.43707171E-01  0.00000000E+00
 1  5.20099998E-01  6.37499988E-03  0.00000000E+00  1.95554101E+00  8.87288153E-01 -5.16017573E-03  0.00000000E+00  8.87303174E-01  2.64568067E+00  1.35291493E+00 -1.29527032E+00 -1.43707171E-01  0.00000000E+00
 1  5.20099998E-01  6.62499992E-03  0.00000000E+00  1.95550513E+00  8.87676954E-01 -5.33636939E-03  0.00000000E+00  8.87692988E-01  2.64544392E+00  1.35281873E+00 -1.26726890E+00 -1.43707171E-01  0.00000000E+00
 1  5.20099998E-01  6.87499996E-03  0.00000000E+00  1.95546913E+00  8.88065755E-01 -5.51256305E-03  0.00000000E+00  8.88082862E-01  2.64520717E+00  1.35272241E+00 -1.23926735E+00 -1.43707171E-01  0.00000000E+00
 1  5.20099998E-01  7.12500000E-03  0.00000000E+00  1.95543325E+00  8.88454556E-01 -5.68875670E-03  0.00000000E+00  8.88472795E-01  2.64497042E+00  1.35262620E+00 -1.21126580E+00 -1.43707171E-01  0.00000000E+00
 1  5.20099998E-01  7.37500004E-03  0.00000000E+00  1.95539737E+00  8.88843358E-01 -5.86495036E-03  0.00000000E+00  8.88862729E-01  2.64473343E+00  1.35253000E+00 -1.18326426E+00 -1.43707171E-01  0.00000000E+00
 1  5.20099998E-01  7.62500009E-03  0.00000000E+00  1.95536137E+00  8.89232159E-01 -6.04114402E-03  0.00000000E+00  8.89252722E-01  2.64449668E+00  1.35243380E+00 -1.15526283E+00 -1.43707171E-01  0.00000000E+00
 1  5.20099998E-01  7.87500013E-03  0.00000000E+00  1.95532548E+00  8.89620960E-01 -6.21733768E-03  0.00000000E+00  8.89642715E-01  2.64425993E+00  1.35233748E+00 -1.12726128E+00 -1.43707171E-01  0.00000000E+00
 1  5.20099998E-01  8.12499970E-03  0.00000000E+00  1.95528960E+00  8.90009761E-01 -6.39353087E-03  0.00000000E+00  8.90032709E-01  2.64402318E+00  1.35224128E+00 -1.09925973E+00 -1.43707171E-01  0.00000000E+00
 1  5.20099998E-01  8.37500021E-03  0.00000000E+00  1.95525360E+00  8.90398562E-01 -6.56972453E-03  0.00000000E+00  8.90422821E-01  2.64378643E+00  1.35214508E+00 -1.07125819E+00 -1.43707171E-01  0.00000000E+00
 1  5.20099998E-01  8.62499978E-03  0.00000000E+00  1.95521772E+00  8.90787363E-01 -6.74591819E-03  0.00000000E+00  8.90812933E-01  2.64354968E+00  1.35204875E+00 -1.04325676E+00 -1.43707171E-01  0.00000000E+00
 1  5.20099998E-01  8.87500029E-03  0.00000000E+00  1.95518172E+00  8.91176164E-01 -6.92211185E-03  0.00000000E+00  8.91203046E-01  2.64331293E+00  1.35195255E+00 -1.01525521E+00 -1.43707171E-01  0.00000000E+00
 1  5.20099998E-01  9.12499987E-03  0.00000000E+00  1.95514584E+00  8.91564965E-01 -7.09830550E-03  0.00000000E+00  8.91593218E-01  2.64307642E+00  1.35185635E+00 -9.87253726E-01 -1.43707171E-01  0.00000000E+00
 1  5.20099998E-01  9.37500037E-03  0.00000000E+00  1.95510995E+00  8.91953766E-01 -7.27449916E-03  0.00000000E+00  8.91983449E-01  2.64283967E+00  1.35176015E+00 -9.59252179E-01 -1.43707171E-01  0.00000000E+00
 1  5.20099998E-01  9.62499995E-03  0.00000000E+00  1.95507395E+00  8.92342567E-01 -7.45069282E-03  0.00000000E+00  8.92373681E-01  2.64260292E+00  1.35166383E+00 -9.31250691E-01 -1.43707171E-01  0.00000000E+00
 1  5.20099998E-01  9.87500045E-03  0.00000000E+00  1.95503807E+00  8.92731369E-01 -7.62688648E-03  0.00000000E+00  8.92763972E-01  2.64236617E+00  1.35156763E+00 -9.03249145E-01 -1.43707171E-01  0.00000000E+00
 1  5.20099998E-01  1.01250000E-02  0.00000000E+00  1.95503855E+00  8.92844379E-01 -7.81711936E-03  0.00000000E+00  8.92878592E-01  2.64227533E+00  1.35152078E+00 -8.91156673E-01  1.47807330E-01  0.00000000E+00
 1  5.20099998E-01  1.03749996E-02  0.00000000E+00  1.95507550E+00  8.92681539E-01 -8.02139100E-03  0.00000000E+00  8.92717540E-01  2.64232993E+00  1.35152328E+00 -8.94973278E-01  1.47807330E-01  0.00000000E+00
 1  5.20099998E-01  1.06250001E-02  0.00000000E+00  1.95511246E+00  8.92518699E-01 -8.22566357E-03  0.00000000E+00  8.92556608E-01  2.64238477E+00  1.35152578E+00 -8.98789823E-01  1.47807330E-01  0.00000000E+00
 1  5.20099998E-01  1.08749997E-02  0.00000000E+00  1.95514941E+00  8.92355859E-01 -8.42993520E-03  0.00000000E+00  8.92395675E-01  2.64243960E+00  1.35152829E+00 -9.02606368E-01  1.47807330E-01  0.00000000E+00
 1  5.20099998E-01  1.11250002E-02  0.00000000E+00  1.95518637E+00  8.92193079E-01 -8.63420777E-03  0.00000000E+00  8.92234862E-01  2.64249444E+00  1.35153079E+00 -9.06422973E-01  1.47807330E-01  0.00000000E+00
 1  5.20099998E-01  1.13749998E-02  0.00000000E+00  1.95522332E+00  8.92030239E-01 -8.83847941E-03  0.00000000E+00  8.92073989E-01  2.64254928E+00  1.35153317E+00 -9.10239518E-01  1.47807330E-01  0.00000000E+00
 1  5.20099998E-01  1.16250003E-02  0.00000000E+00  1.95526028E+00  8.91867399E-01 -9.04275198E-03  0.00000000E+00  8.91913235E-01  2.64260411E+00  1.35153568E+00 -9.14056122E-01  1.47807330E-01  0.00000000E+00
 1  5.20099998E-01  1.18749999E-02  0.00000000E+00  1.95529723E+00  8.91704559E-01 -9.24702361E-03  0.00000000E+00  8.91752541E-01  2.64265895E+00  1.35153818E+00 -9.17872667E-01  1.47807330E-01  0.00000000E+00
 1  5.20099998E-01  1.21250004E-02  0.00000000E+00  1.95533419E+00  8.91541779E-01 -9.45129525E-03  0.00000000E+00  8.91591847E-01  2.64271379E+00  1.35154068E+00 -9.21689212E-01  1.47807330E-01  0.00000000E+00
 1  5.20099998E-01  1.23749999E-02  0.00000000E+00  1.95537114E+00  8.91378939E-01 -9.65556782E-03  0.00000000E+00  8.91431212E-01  2.64276862E+00  1.35154319E+00 -9.25505817E-01  1.47807330E-01  0.00000000E+00
 1  5.20099998E-01  1.26250004E-02  0.00000000E+00  1.95540810E+00  8.91216099E-01 -9.85983945E-03  0.00000000E+00  8.91270638E-01  2.64282346E+00  1.35154569E+00 -9.29322362E-01  1.47807330E-01  0.00000000E+00
 1  5.20099998E-01  1.28750000E-02  0.00000000E+00  1.95544505E+00  8.91053259E-01 -1.00641120E-02  0.00000000E+00  8.91110122E-01  2.64287829E+00  1.35154819E+00 -9.33138967E-01  1.47807330E-01  0.00000000E+00
 1  5.20099998E-01  1.31249996E-02  0.00000000E+00  1.95548201E+00  8.90890479E-01 -1.02683837E-02  0.00000000E+00  8.90949607E-01  2.64293289E+00  1.35155070E+00 -9.36955512E-01  1.47807330E-01  0.00000000E+00
 1  5.20099998E-01  1.33750001E-02  0.00000000E+00  1.95551896E+00  8.90727639E-01 -1.04726562E-02  0.00000000E+00  8.90789211E-01  2.64298773E+00  1.35155320E+00 -9.40772057E-01  1.47807330E-01  0.00000000E+00
 1  5.20099998E-01  1.36249997E-02  0.00000000E+00  1.95555592E+00  8.90564799E-01 -1.06769279E-02  0.00000000E+00  8.90628815E-01  2.64304256E+00  1.35155571E+00 -9.44588661E-01  1.47807330E-01  0.00000000E+00
 1  5.20099998E-01  1.38750002E-02  0.00000000E+00  1.95559287E+00  8.90401959E-01 -1.08812004E-02  0.00000000E+00  8.90468478E-01  2.64309740E+00  1.35155809E+00 -9.48405206E-01  1.47807330E-01  0.00000000E+00
 1  5.20099998E-01  1.41249998E-02  0.00000000E+00  1.95562983E+00  8.90239179E-01 -1.10854721E-02  0.00000000E+00  8.90308201E-01  2.64315224E+00  1.35156059E+00 -9.52221811E-01  1.47807330E-01  0.00000000E+00
 1  5.20099998E-01  1.43750003E-02  0.00000000E+00  1.95566678E+00  8.90076339E-01 -1.12897446E-02  0.00000000E+00  8.90147924E-01  2.64320707E+00  1.35156310E+00 -9.56038356E-01  1.47807330E-01  0.00000000E+00
 1  5.20099998E-01  1.46249998E-02  0.00000000E+00  1.95570374E+00  8.89913499E-01 -1.14940163E-02  0.00000000E+00  8.89987707E-01  2.64326191E+00  1.35156560E+00 -9.59854901E-01  1.47807330E-01  0.00000000E+00
 1  5.20099998E-01  1.48750003E-02  0.00000000E+00  1.95574069E+00  8.89750659E-01 -1.16982888E-02  0.00000000E+00  8.89827609E-01  2.64331675E+00  1.35156810E+00 -9.63671505E-01  1.47807330E-01  0.00000000E+00
 1  5.20099998E-01  1.51249999E-02  0.00000000E+00  1.95584595E+00  8.89723241E-01 -1.18856262E-02  0.00000000E+00  8.89802635E-01  2.64340758E+00  1.35154176E+00 -9.67988491E-01  6.94392323E-01  0.00000000E+00
 1  5.20099998E-01  1.53750004E-02  0.00000000E+00  1.95601952E+00  8.89831245E-01 -1.20560294E-02  0.00000000E+00  8.89912903E-01  2.64353442E+00  1.35148668E+00 -9.72805858E-01  6.94392323E-01  0.00000000E+00
 1  5.20099998E-01  1.56250000E-02  0.00000000E+00  1.95619309E+00  8.89939189E-01 -1.22264335E-02  0.00000000E+00  8.90023172E-01  2.64366102E+00  1.35143149E+00 -9.77623284E-01  6.94392323E-01  0.00000000E+00
 1  5.20099998E-01  1.58750005E-02  0.00000000E+00  1.95636678E+00  8.90047133E-01 -1.23968367E-02  0.00000000E+00  8.90133500E-01  2.64378786E+00  1.35137641E+00 -9.82440650E-01  6.94392323E-01  0.00000000E+00
 1  5.20099998E-01  1.61249992E-02  0.00000000E+00  1.95654035E+00  8.90155137E-01 -1.25672398E-02  0.00000000E+00  8.90243828E-01  2.64391470E+00  1.35132134E+00 -9.87258017E-01  6.94392323E-01  0.00000000E+00
 1  5.20099998E-01  1.63749997E-02  0.00000000E+00  1.95671391E+00  8.90263081E-01 -1.27376439E-02  0.00000000E+00  8.90354216E-01  2.64404130E+00  1.35126615E+00 -9.92075443E-01  6.94392323E-01  0.00000000E+00
 1  5.20099998E-01  1.66250002E-02  0.00000000E+00  1.95688748E+00  8.90371084E-01 -1.29080471E-02  0.00000000E+00  8.90464604E-01  2.64416790E+00  1.35121107E+00 -9.96892810E-01  6.94392323E-01  0.00000000E+00
 1  5.20099998E-01  1.68750007E-02  0.00000000E+00  1.95706117E+00  8.90479028E-01 -1.30784512E-02  0.00000000E+00  8.90575051E-01  2.64429474E+00  1.35115588E+00 -1.00171018E+00  6.94392323E-01  0.00000000E+00
 1  5.20099998E-01  1.71249993E-02  0.00000000E+00  1.95723474E+00  8.90586972E-01 -1.32488543E-02  0.00000000E+00  8.90685558E-01  2.64442134E+00  1.35110080E+00 -1.00652766E+00  6.94392323E-01  0.00000000E+00
 1  5.20099998E-01  1.73749998E-02  0.00000000E+00  1.95740831E+00  8.90694976E-01 -1.34192575E-02  0.00000000E+00  8.90796065E-01  2.64454794E+00  1.35104561E+00 -1.01134503E+00  6.94392323E-01  0.00000000E+00
 1  5.20099998E-01  1.76250003E-02  0.00000000E+00  1.95758188E+00  8.90802920E-01 -1.35896616E-02  0.00000000E+00  8.90906572E-01  2.64467454E+00  1.35099053E+00 -1.01616240E+00  6.94392323E-01  0.00000000E+00
 1  5.20099998E-01  1.78750008E-02  0.00000000E+00  1.95775557E+00  8.90910923E-01 -1.37600647E-02  0.00000000E+00  8.91017139E-01  2.64480114E+00  1.35093534E+00 -1.02097976E+00  6.94392323E-01  0.00000000E+00
 1  5.20099998E-01  1.81249995E-02  0.00000000E+00  1.95792913E+00  8.91018867E-01 -1.39304679E-02  0.00000000E+00  8.91127765E-01  2.64492774E+00  1.35088027E+00 -1.02579725E+00  6.94392323E-01  0.00000000E+00
 1  5.20099998E-01  1.83750000E-02  0.00000000E+00  1.95810270E+00  8.91126812E-01 -1.41008720E-02  0.00000000E+00  8.91238391E-01  2.64505434E+00  1.35082519E+00 -1.03061461E+00  6.94392323E-01  0.00000000E+00
 1  5.20099998E-01  1.86250005E-02  0.00000000E+00  1.95827627E+00  8.91234815E-01 -1.42712751E-02  0.00000000E+00  8.91349077E-01  2.64518094E+00  1.35077000E+00 -1.03543198E+00  6.94392323E-01  0.00000000E+00
 1  5.20099998E-01  1.88749991E-02  0.00000000E+00  1.95844996E+00  8.91342759E-01 -1.44416792E-02  0.00000000E+00  8.91459763E-01  2.64530754E+00  1.35071492E+00 -1.04024935E+00  6.94392323E-01  0.00000000E+00
 1  5.20099998E-01  1.91249996E-02  0.00000000E+00  1.95862353E+00  8.91450763E-01 -1.46120824E-02  0.00000000E+00  8.91570508E-01  2.64543390E+00  1.35065973E+00 -1.04506671E+00  6.94392323E-01  0.00000000E+00
 1  5.20099998E-01  1.93750001E-02  0.00000000E+00  1.95879710E+00  8.91558707E-01 -1.47824856E-02  0.00000000E+00  8.91681254E-01  2.64556050E+00  1.35060465E+00 -1.04988420E+00  6.94392323E-01  0.00000000E+00
 1  5.20099998E-01  1.96250007E-02  0.00000000E+00  1.95897067E+00  8.91666651E-01 -1.49528896E-02  0.00000000E+00  8.91792059E-01  2.64568686E+00  1.35054946E+00 -1.05470157E+00  6.94392323E-01  0.00000000E+00
 1  5.20099998E-01  1.98749993E-02  0.00000000E+00  1.95914435E+00  8.91774654E-01 -1.51232928E-02  0.00000000E+00  8.91902864E-01  2.64581347E+00  1.35049438E+00 -1.05951893E+00  6.94392323E-01  0.00000000E+00
 1  5.20099998E-01  2.01249998E-02  0.00000000E+00  1.95928204E+00  8.91879499E-01 -1.52618047E-02  0.00000000E+00  8.92010093E-01  2.64589167E+00  1.35043943E+00 -1.04867566E+00  4.07855719E-01  0.00000000E+00
 1  5.20099998E-01  2.03750003E-02  0.00000000E+00  1.95938408E+00  8.91981304E-01 -1.53684244E-02  0.00000000E+00  8.92113686E-01  2.64592218E+00  1.35038459E+00 -1.02217174E+00  4.07855719E-01  0.00000000E+00
 1  5.20099998E-01  2.06250008E-02  0.00000000E+00  1.95948601E+00  8.92083108E-01 -1.54750450E-02  0.00000000E+00  8.92217338E-01  2.64595246E+00  1.35032988E+00 -9.95667815E-01  4.07855719E-01  0.00000000E+00
 1  5.20099998E-01  2.08749995E-02  0.00000000E+00  1.95958793E+00  8.92184913E-01 -1.55816656E-02  0.00000000E+00  8.92320991E-01  2.64598274E+00  1.35027504E+00 -9.69163895E-01  4.07855719E-01  0.00000000E+00
 1  5.20099998E-01  2.11250000E-02  0.00000000E+00  1.95968997E+00  8.92286718E-01 -1.56882852E-02  0.00000000E+00  8.92424643E-01  2.64601302E+00  1.35022020E+00 -9.42659974E-01  4.07855719E-01  0.00000000E+00
 1  5.20099998E-01  2.13750005E-02  0.00000000E+00  1.95979190E+00  8.92388523E-01 -1.57949049E-02  0.00000000E+00  8.92528296E-01  2.64604330E+00  1.35016549E+00 -9.16155994E-01  4.07855719E-01  0.00000000E+00
 1  5.20099998E-01  2.16249991E-02  0.00000000E+00  1.95989382E+00  8.92490327E-01 -1.59015264E-02  0.00000000E+00  8.92631948E-01  2.64607358E+00  1.35011065E+00 -8.89652073E-01  4.07855719E-01  0.00000000E+00
 1  5.20099998E-01  2.18749996E-02  0.00000000E+00  1.95999587E+00  8.92592132E-01 -1.60081461E-02  0.00000000E+00  8.92735660E-01  2.64610386E+00  1.35005581E+00 -8.63148153E-01  4.07855719E-01  0.00000000E+00
 1  5.20099998E-01  2.21250001E-02  0.00000000E+00  1.96009779E+00  8.92693877E-01 -1.61147658E-02  0.00000000E+00  8.92839313E-01  2.64613414E+00  1.35000110E+00 -8.36644232E-01  4.07855719E-01  0.00000000E+00
 1  5.20099998E-01  2.23750006E-02  0.00000000E+00  1.96019971E+00  8.92795682E-01 -1.62213854E-02  0.00000000E+00  8.92943025E-01  2.64616442E+00  1.34994626E+00 -8.10140312E-01  4.07855719E-01  0.00000000E+00
 1  5.20099998E-01  2.26249993E-02  0.00000000E+00  1.96030176E+00  8.92897487E-01 -1.63280070E-02  0.00000000E+00  8.93046796E-01  2.64619446E+00  1.34989142E+00 -7.83636391E-01  4.07855719E-01  0.00000000E+00
 1  5.20099998E-01  2.28749998E-02  0.00000000E+00  1.96040368E+00  8.92999291E-01 -1.64346267E-02  0.00000000E+00  8.93150508E-01  2.64622474E+00  1.34983671E+00 -7.57132411E-01  4.07855719E-01  0.00000000E+00
 1  5.20099998E-01  2.31250003E-02  0.00000000E+00  1.96050560E+00  8.93101096E-01 -1.65412463E-02  0.00000000E+00  8.93254280E-01  2.64625502E+00  1.34978187E+00 -7.30628490E-01  4.07855719E-01  0.00000000E+00
 1  5.20099998E-01  2.33750008E-02  0.00000000E+00  1.96060765E+00  8.93202901E-01 -1.66478660E-02  0.00000000E+00  8.93357992E-01  2.64628530E+00  1.34972703E+00 -7.04124570E-01  4.07855719E-01  0.00000000E+00
 1  5.20099998E-01  2.36249994E-02  0.00000000E+00  1.96070957E+00  8.93304706E-01 -1.67544875E-02  0.00000000E+00  8.93461764E-01  2.64631534E+00  1.34967232E+00 -6.77620649E-01  4.07855719E-01  0.00000000E+00
 1  5.20099998E-01  2.38750000E-02  0.00000000E+00  1.96081150E+00  8.93406451E-01 -1.68611072E-02  0.00000000E+00  8.93565595E-01  2.64634562E+00  1.34961748E+00 -6.51116729E-01  4.07855719E-01  0.00000000E+00
 1  5.20099998E-01  2.41250005E-02  0.00000000E+00  1.96091354E+00  8.93508255E-01 -1.69677269E-02  0.00000000E+00  8.93669367E-01  2.64637566E+00  1.34956264E+00 -6.24612808E-01  4.07855719E-01  0.00000000E+00
 1  5.20099998E-01  2.43749991E-02  0.00000000E+00  1.96101546E+00  8.93610060E-01 -1.70743465E-02  0.00000000E+00  8.93773198E-01  2.64640594E+00  1.34950793E+00 -5.98108828E-01  4.07855719E-01  0.00000000E+00
 1  5.20099998E-01  2.46249996E-02  0.00000000E+00  1.96111739E+00  8.93711865E-01 -1.71809681E-02  0.00000000E+00  8.93876970E-01  2.64643598E+00  1.34945309E+00 -5.71604908E-01  4.07855719E-01  0.00000000E+00
 1  5.20099998E-01  2.48750001E-02  0.00000000E+00  1.96121943E+00  8.93813670E-01 -1.72875877E-02  0.00000000E+00  8.93980861E-01  2.64646602E+00  1.34939826E+00 -5.45100987E-01  4.07855719E-01  0.00000000E+00
 1  5.20099998E-01  2.51250006E-02  0.00000000E+00  1.96117842E+00  8.93978536E-01 -1.73763409E-02  0.00000000E+00  8.94147396E-01  2.64626861E+00  1.34932590E+00 -4.81216729E-01 -7.35978305E-01  0.00000000E+00
 1  5.20099998E-01  2.53749993E-02  0.00000000E+00  1.96099436E+00  8.94206524E-01 -1.74472295E-02  0.00000000E+00  8.94376695E-01  2.64584374E+00  1.34923577E+00 -3.79952163E-01 -7.35978305E-01  0.00000000E+00
 1  5.20099998E-01  2.56249998E-02  0.00000000E+00  1.96081042E+00  8.94434452E-01 -1.75181162E-02  0.00000000E+00  8.94605994E-01  2.64541888E+00  1.34914565E+00 -2.78687596E-01 -7.35978305E-01  0.00000000E+00
 1  5.20099998E-01  2.58750003E-02  0.00000000E+00  1.96062636E+00  8.94662380E-01 -1.75890047E-02  0.00000000E+00  8.94835293E-01  2.64499402E+00  1.34905553E+00 -1.77423000E-01 -7.35978305E-01  0.00000000E+00
 1  5.20099998E-01  2.61250008E-02  0.00000000E+00  1.96044242E+00  8.94890368E-01 -1.76598914E-02  0.00000000E+00  8.95064592E-01  2.64456916E+00  1.34896541E+00 -7.61584267E-02 -7.35978305E-01  0.00000000E+00
 1  5.20099998E-01  2.63749994E-02  0.00000000E+00  1.96025836E+00  8.95118296E-01 -1.77307799E-02  0.00000000E+00  8.95293891E-01  2.64414430E+00  1.34887540E+00  2.51061525E-02 -7.35978305E-01  0.00000000E+00
 1  5.20099998E-01  2.66249999E-02  0.00000000E+00  1.96007442E+00  8.95346284E-01 -1.78016666E-02  0.00000000E+00  8.95523250E-01  2.64371943E+00  1.34878528E+00  1.26370728E-01 -7.35978305E-01  0.00000000E+00
 1  5.20099998E-01  2.68750004E-02  0.00000000E+00  1.95989037E+00  8.95574212E-01 -1.78725552E-02  0.00000000E+00  8.95752549E-01  2.64329481E+00  1.34869516E+00  2.27635309E-01 -7.35978305E-01  0.00000000E+00
 1  5.20099998E-01  2.71249991E-02  0.00000000E+00  1.95970643E+00  8.95802200E-01 -1.79434419E-02  0.00000000E+00  8.95981848E-01  2.64286995E+00  1.34860504E+00  3.28899890E-01 -7.35978305E-01  0.00000000E+00
 1  5.20099998E-01  2.73749996E-02  0.00000000E+00  1.95952249E+00  8.96030128E-01 -1.80143304E-02  0.00000000E+00  8.96211207E-01  2.64244533E+00  1.34851491E+00  4.30164456E-01 -7.35978305E-01  0.00000000E+00
 1  5.20099998E-01  2.76250001E-02  0.00000000E+00  1.95933843E+00  8.96258116E-01 -1.80852171E-02  0.00000000E+00  8.96440566E-01  2.64202070E+00  1.34842491E+00  5.31429052E-01 -7.35978305E-01  0.00000000E+00
 1  5.20099998E-01  2.78750006E-02  0.00000000E+00  1.95915449E+00  8.96486044E-01 -1.81561057E-02  0.00000000E+00  8.96669865E-01  2.64159608E+00  1.34833479E+00  6.32693589E-01 -7.35978305E-01  0.00000000E+00
 1  5.20099998E-01  2.81249993E-02  0.00000000E+00  1.95897043E+00  8.96714032E-01 -1.82269923E-02  0.00000000E+00  8.96899223E-01  2.64117146E+00  1.34824467E+00  7.33958185E-01 -7.35978305E-01  0.00000000E+00
 1  5.20099998E-01  2.83749998E-02  0.00000000E+00  1.95878649E+00  8.96941960E-01 -1.82978809E-02  0.00000000E+00  8.97128582E-01  2.64074683E+00  1.34815454E+00  8.35222781E-01 -7.35978305E-01  0.00000000E+00
 1  5.20099998E-01  2.86250003E-02  0.00000000E+00  1.95860243E+00  8.97169888E-01 -1.83687676E-02  0.00000000E+00  8.97357941E-01  2.64032245E+00  1.34806442E+00  9.36487377E-01 -7.35978305E-01  0.00000000E+00
 1  5.20099998E-01  2.88750008E-02  0.00000000E+00  1.95841849E+00  8.97397876E-01 -1.84396561E-02  0.00000000E+00  8.97587299E-01  2.63989782E+00  1.34797430E+00  1.03775191E+00 -7.35978305E-01  0.00000000E+00
 1  5.20099998E-01  2.91249994E-02  0.00000000E+00  1.95823443E+00  8.97625804E-01 -1.85105428E-02  0.00000000E+00  8.97816658E-01  2.63947344E+00  1.34788430E+00  1.13901651E+00 -7.35978305E-01  0.00000000E+00
 1  5.20099998E-01  2.93749999E-02  0.00000000E+00  1.95805049E+00  8.97853792E-01 -1.85814314E-02  0.00000000E+00  8.98046017E-01  2.63904905E+00  1.34779418E+00  1.24028111E+00 -7.35978305E-01  0.00000000E+00
 1  5.20099998E-01  2.96250004E-02  0.00000000E+00  1.95786643E+00  8.98081720E-01 -1.86523180E-02  0.00000000E+00  8.98275435E-01  2.63862467E+00  1.34770405E+00  1.34154570E+00 -7.35978305E-01  0.00000000E+00
 1  5.20099998E-01  2.98749991E-02  0.00000000E+00  1.95768249E+00  8.98309708E-01 -1.87232066E-02  0.00000000E+00  8.98504794E-01  2.63820028E+00  1.34761393E+00  1.44281030E+00 -7.35978305E-01  0.00000000E+00
 1  5.20099998E-01  3.01249996E-02  0.00000000E+00  1.95722210E+00  8.98677945E-01 -1.88452248E-02  0.00000000E+00  8.98875535E-01  2.63730049E+00  1.34747124E+00  1.59335482E+00 -2.94680381E+00  0.00000000E+00
 1  5.20099998E-01  3.03750001E-02  0.00000000E+00  1.95648539E+00  8.99186552E-01 -1.90183744E-02  0.00000000E+00  8.99387658E-01  2.63592553E+00  1.34727585E+00  1.79317939E+00 -2.94680381E+00  0.00000000E+00
 1  5.20099998E-01  3.06250006E-02  0.00000000E+00  1.95574868E+00  8.99695158E-01 -1.91915222E-02  0.00000000E+00  8.99899840E-01  2.63455105E+00  1.34708047E+00  1.99300408E+00 -2.94680381E+00  0.00000000E+00
 1  5.20099998E-01  3.08749992E-02  0.00000000E+00  1.95501208E+00  9.00203764E-01 -1.93646718E-02  0.00000000E+00  9.00412023E-01  2.63317657E+00  1.34688509E+00  2.19282866E+00 -2.94680381E+00  0.00000000E+00
 1  5.20099998E-01  3.11249997E-02  0.00000000E+00  1.95427537E+00  9.00712371E-01 -1.95378195E-02  0.00000000E+00  9.00924265E-01  2.63180256E+00  1.34668982E+00  2.39265323E+00 -2.94680381E+00  0.00000000E+00
 1  5.20099998E-01  3.13749984E-02  0.00000000E+00  1.95353866E+00  9.01220977E-01 -1.97109692E-02  0.00000000E+00  9.01436508E-01  2.63042879E+00  1.34649444E+00  2.59247780E+00 -2.94680381E+00  0.00000000E+00
 1  5.20099998E-01  3.16249989E-02  0.00000000E+00  1.95280194E+00  9.01729584E-01 -1.98841188E-02  0.00000000E+00  9.01948750E-01  2.62905550E+00  1.34629905E+00  2.79230261E+00 -2.94680381E+00  0.00000000E+00
 1  5.20099998E-01  3.18749994E-02  0.00000000E+00  1.95206523E+00  9.02238131E-01 -2.00572666E-02  0.00000000E+00  9.02461052E-01  2.62768221E+00  1.34610367E+00  2.99212718E+00 -2.94680381E+00  0.00000000E+00
 1  5.20099998E-01  3.21249999E-02  0.00000000E+00  1.95132852E+00  9.02746737E-01 -2.02304162E-02  0.00000000E+00  9.02973413E-01  2.62630939E+00  1.34590828E+00  3.19195175E+00 -2.94680381E+00  0.00000000E+00
 1  5.20099998E-01  3.23750004E-02  0.00000000E+00  1.95059180E+00  9.03255343E-01 -2.04035658E-02  0.00000000E+00  9.03485775E-01  2.62493682E+00  1.34571302E+00  3.39177632E+00 -2.94680381E+00  0.00000000E+00
 1  5.20099998E-01  3.26250009E-02  0.00000000E+00  1.94985509E+00  9.03763950E-01 -2.05767136E-02  0.00000000E+00  9.03998137E-01  2.62356448E+00  1.34551764E+00  3.59160089E+00 -2.94680381E+00  0.00000000E+00
 1  5.20099998E-01  3.28750014E-02  0.00000000E+00  1.94911838E+00  9.04272556E-01 -2.07498632E-02  0.00000000E+00  9.04510558E-01  2.62219238E+00  1.34532225E+00  3.79142547E+00 -2.94680381E+00  0.00000000E+00
 1  5.20099998E-01  3.31249982E-02  0.00000000E+00  1.94838178E+00  9.04781163E-01 -2.09230110E-02  0.00000000E+00  9.05023038E-01  2.62082052E+00  1.34512687E+00  3.99125028E+00 -2.94680381E+00  0.00000000E+00
 1  5.20099998E-01  3.33749987E-02  0.00000000E+00  1.94764507E+00  9.05289769E-01 -2.10961606E-02  0.00000000E+00  9.05535519E-01  2.61944914E+00  1.34493148E+00  4.19107485E+00 -2.94680381E+00  0.00000000E+00
 1  5.20099998E-01  3.36249992E-02  0.00000000E+00  1.94690835E+00  9.05798316E-01 -2.12693103E-02  0.00000000E+00  9.06048000E-01  2.61807799E+00  1.34473610E+00  4.39089918E+00 -2.94680381E+00  0.00000000E+00
 1  5.20099998E-01  3.38749997E-02  0.00000000E+00  1.94617164E+00  9.06306922E-01 -2.14424580E-02  0.00000000E+00  9.06560540E-01  2.61670709E+00  1.34454083E+00  4.59072399E+00 -2.94680381E+00  0.00000000E+00
 1  5.20099998E-01  3.41250002E-02  0.00000000E+00  1.94543493E+00  9.06815529E-01 -2.16156077E-02  0.00000000E+00  9.07073140E-01  2.61533642E+00  1.34434545E+00  4.79054880E+00 -2.94680381E+00  0.00000000E+00
 1  5.20099998E-01  3.43750007E-02  0.00000000E+00  1.94469821E+00  9.07324135E-01 -2.17887573E-02  0.00000000E+00  9.07585740E-01  2.61396623E+00  1.34415007E+00  4.99037313E+00 -2.94680381E+00  0.00000000E+00
 1  5.20099998E-01  3.46250013E-02  0.00000000E+00  1.94396150E+00  9.07832742E-01 -2.19619051E-02  0.00000000E+00  9.08098340E-01  2.61259627E+00  1.34395468E+00  5.19019794E+00 -2.94680381E+00  0.00000000E+00
 1  5.20099998E-01  3.48750018E-02  0.00000000E+00  1.94322479E+00  9.08341348E-01 -2.21350547E-02  0.00000000E+00  9.08611000E-01  2.61122656E+00  1.34375930E+00  5.39002228E+00 -2.94680381E+00  0.00000000E+00