# CoordinateSystem = xByUzL
# Units = ISS
VARIABLES = "Found","X","Y","Z","Density","VelocityX","VelocityY","VelocityZ","VelocityMag","Pressure","Temperature","DensityGradientX","DensityGradientY","DensityGradientZ"
ZONE T="t = 7.00000000E-01",I=8000,SOLUTIONTIME=7.00000000E-01
 1  1.25000006E-04  4.00099993E-01  0.00000000E+00  1.00000000E+00  1.77482390E+00 -8.35276638E-15  0.00000000E+00  1.77482390E+00  1.00000000E+00  1.00000000E+00 -1.07996945E-11 -5.72850101E-12  0.00000000E+00
 1  3.75000003E-04  4.00099993E-01  0.00000000E+00  1.00000000E+00  1.77482390E+00 -7.16182366E-15  0.00000000E+00  1.77482390E+00  1.00000000E+00  1.00000000E+00 -1.07996945E-11 -6.08504913E-12  0.00000000E+00
 1  6.24999986E-04  4.00099993E-01  0.00000000E+00  1.00000000E+00  1.77482390E+00 -5.97088178E-15  0.00000000E+00  1.77482390E+00  1.00000000E+00  1.00000000E+00 -1.07988063E-11 -6.41317555E-12  0.00000000E+00
 1  8.75000027E-04  4.00099993E-01  0.00000000E+00  1.00000000E+00  1.77482390E+00 -4.77993991E-15  0.00000000E+00  1.77482390E+00  1.00000000E+00  1.00000000E+00 -1.07988063E-11 -6.74130196E-12  0.00000000E+00
 1  1.12499995E-03  4.00099993E-01  0.00000000E+00  1.00000000E+00  1.77482390E+00 -3.58899803E-15  0.00000000E+00  1.77482390E+00  1.00000000E+00  1.00000000E+00 -1.07996945E-11 -7.06942838E-12  0.00000000E+00
 1  1.37499999E-03  4.00099993E-01  0.00000000E+00  1.00000000E+00  1.77482390E+00 -2.39805594E-15  0.00000000E+00  1.77482390E+00  1.00000000E+00  1.00000000E+00 -1.07988063E-11 -7.45439821E-12  0.00000000E+00
 1  1.62500003E-03  4.00099993E-01  0.00000000E+00  1.00000000E+00  1.77482390E+00 -1.20711396E-15  0.00000000E+00  1.77482390E+00  1.00000000E+00  1.00000000E+00 -1.07988063E-11 -7.78252462E-12  0.00000000E+00
 1  1.87499996E-03  4.00099993E-01  0.00000000E+00  1.00000000E+00  1.77482390E+00 -1.61720014E-17  0.00000000E+00  1.77482390E+00  1.00000000E+00  1.00000000E+00 -1.08281162E-11 -8.13907275E-12  0.00000000E+00
 1  2.12500012E-03  4.00099993E-01  0.00000000E+00  1.00000000E+00  1.77482390E+00  1.17477001E-15  0.00000000E+00  1.77482390E+00  1.00000000E+00  1.00000000E+00 -1.08281162E-11 -8.48141002E-12  0.00000000E+00
 1  2.37499992E-03  4.00099993E-01  0.00000000E+00  1.00000000E+00  1.77482390E+00  2.36571199E-15  0.00000000E+00  1.77482390E+00  1.00000000E+00  1.00000000E+00 -1.07988063E-11 -8.85216900E-12  0.00000000E+00
 1  2.62499996E-03  4.00099993E-01  0.00000000E+00  1.00000000E+00  1.77482390E+00  3.55665408E-15  0.00000000E+00  1.77482390E+00  1.00000000E+00  1.00000000E+00 -1.07988063E-11 -9.16608456E-12  0.00000000E+00
 1  2.87500001E-03  4.00099993E-01  0.00000000E+00  1.00000000E+00  1.77482390E+00  4.74759595E-15  0.00000000E+00  1.77482390E+00  1.00000000E+00  1.00000000E+00 -1.07996945E-11 -9.52263268E-12  0.00000000E+00
 1  3.12500005E-03  4.00099993E-01  0.00000000E+00  1.00000000E+00  1.77482390E+00  5.93853783E-15  0.00000000E+00  1.77482390E+00  1.00000000E+00  1.00000000E+00 -1.07988063E-11 -9.84365367E-12  0.00000000E+00
 1  3.37500009E-03  4.00099993E-01  0.00000000E+00  1.00000000E+00  1.77482390E+00  7.12947971E-15  0.00000000E+00  1.77482390E+00  1.00000000E+00  1.00000000E+00 -1.07988063E-11 -1.02144126E-11  0.00000000E+00
 1  3.62499990E-03  4.00099993E-01  0.00000000E+00  1.00000000E+00  1.77482390E+00  8.32042158E-15  0.00000000E+00  1.77482390E+00  1.00000000E+00  1.00000000E+00 -1.07996945E-11 -1.05247755E-11  0.00000000E+00
 1  3.87499994E-03  4.00099993E-01  0.00000000E+00  1.00000000E+00  1.77482390E+00  9.51136430E-15  0.00000000E+00  1.77482390E+00  1.00000000E+00  1.00000000E+00 -1.07996945E-11 -1.08902054E-11  0.00000000E+00
 1  4.12499998E-03  4.00099993E-01  0.00000000E+00  1.00000000E+00  1.77482390E+00  1.02840667E-14  0.00000000E+00  1.77482390E+00  1.00000000E+00  1.00000000E+00 -4.32870406E-12 -1.07193004E-11  0.00000000E+00
 1  4.37500002E-03  4.00099993E-01  0.00000000E+00  1.00000000E+00  1.77482390E+00  1.06385297E-14  0.00000000E+00  1.77482390E+00  1.00000000E+00  1.00000000E+00 -4.32870406E-12 -1.00093961E-11  0.00000000E+00
 1  4.62500006E-03  4.00099993E-01  0.00000000E+00  1.00000000E+00  1.77482390E+00  1.09929926E-14  0.00000000E+00  1.77482390E+00  1.00000000E+00  1.00000000E+00 -4.32781588E-12 -9.32791344E-12  0.00000000E+00
 1  4.87500010E-03  4.00099993E-01  0.00000000E+00  1.00000000E+00  1.77482390E+00  1.13474556E-14  0.00000000E+00  1.77482390E+00  1.00000000E+00  1.00000000E+00 -4.32781588E-12 -8.64643079E-12  0.00000000E+00
 1  5.12500014E-03  4.00099993E-01  0.00000000E+00  1.00000000E+00  1.77482390E+00  1.17019194E-14  0.00000000E+00  1.77482390E+00  1.00000000E+00  1.00000000E+00 -4.32870406E-12 -7.99336985E-12  0.00000000E+00
 1  5.37500018E-03  4.00099993E-01  0.00000000E+00  1.00000000E+00  1.77482390E+00  1.20563824E-14  0.00000000E+00  1.77482390E+00  1.00000000E+00  1.00000000E+00 -4.32781588E-12 -7.31188721E-12  0.00000000E+00
 1  5.62500022E-03  4.00099993E-01  0.00000000E+00  1.00000000E+00  1.77482390E+00  1.24108453E-14  0.00000000E+00  1.77482390E+00  1.00000000E+00  1.00000000E+00 -4.32781588E-12 -6.57356114E-12  0.00000000E+00
 1  5.87499980E-03  4.00099993E-01  0.00000000E+00  1.00000000E+00  1.77482390E+00  1.27653083E-14  0.00000000E+00  1.77482390E+00  1.00000000E+00  1.00000000E+00 -4.35712577E-12 -5.92050020E-12  0.00000000E+00
 1  6.12499984E-03  4.00099993E-01  0.00000000E+00  1.00000000E+00  1.77482390E+00  1.31197721E-14  0.00000000E+00  1.77482390E+00  1.00000000E+00  1.00000000E+00 -4.35712577E-12 -5.25322841E-12  0.00000000E+00
 1  6.37499988E-03  4.00099993E-01  0.00000000E+00  1.00000000E+00  1.77482390E+00  1.34742351E-14  0.00000000E+00  1.77482390E+00  1.00000000E+00  1.00000000E+00 -4.32781588E-12 -4.58595661E-12  0.00000000E+00
 1  6.62499992E-03  4.00099993E-01  0.00000000E+00  1.00000000E+00  1.77482390E+00  1.38286980E-14  0.00000000E+00  1.77482390E+00  1.00000000E+00  1.00000000E+00 -4.32781588E-12 -3.87605226E-12  0.00000000E+00
 1  6.87499996E-03  4.00099993E-01  0.00000000E+00  1.00000000E+00  1.77482390E+00  1.41831610E-14  0.00000000E+00  1.77482390E+00  1.00000000E+00  1.00000000E+00 -4.32870406E-12 -3.25141303E-12  0.00000000E+00
 1  7.12500000E-03  4.00099993E-01  0.00000000E+00  1.00000000E+00  1.77482390E+00  1.45376248E-14  0.00000000E+00  1.77482390E+00  1.00000000E+00  1.00000000E+00 -4.32781588E-12 -2.55571952E-12  0.00000000E+00
 1  7.37500004E-03  4.00099993E-01  0.00000000E+00  1.00000000E+00  1.77482390E+00  1.48920877E-14  0.00000000E+00  1.77482390E+00  1.00000000E+00  1.00000000E+00 -4.32781588E-12 -1.87423688E-12  0.00000000E+00
 1  7.62500009E-03  4.00099993E-01  0.00000000E+00  1.00000000E+00  1.77482390E+00  1.52465507E-14  0.00000000E+00  1.77482390E+00  1.00000000E+00  1.00000000E+00 -4.32870406E-12 -1.20696508E-12  0.00000000E+00
 1  7.87500013E-03  4.00099993E-01  0.00000000E+00  1.00000000E+00  1.77482390E+00  1.56010137E-14  0.00000000E+00  1.77482390E+00  1.00000000E+00  1.00000000E+00 -4.32870406E-12 -5.14824294E-13  0.00000000E+00
 1  8.12499970E-03  4.00099993E-01  0.00000000E+00  1.00000000E+00  1.77482390E+00  1.57567932E-14  0.00000000E+00  1.77482390E+00  1.00000000E+00  1.00000000E+00  5.78270765E-12 -2.08777440E-13  0.00000000E+00
 1  8.37500021E-03  4.00099993E-01  0.00000000E+00  1.00000000E+00  1.77482390E+00  1.57138910E-14  0.00000000E+00  1.77482390E+00  1.00000000E+00  1.00000000E+00  5.78270765E-12 -3.17246229E-13  0.00000000E+00
 1  8.62499978E-03  4.00099993E-01  0.00000000E+00  1.00000000E+00  1.77482390E+00  1.56709871E-14  0.00000000E+00  1.77482390E+00  1.00000000E+00  1.00000000E+00  5.78359582E-12 -4.82558438E-13  0.00000000E+00
 1  8.87500029E-03  4.00099993E-01  0.00000000E+00  1.00000000E+00  1.77482390E+00  1.56280831E-14  0.00000000E+00  1.77482390E+00  1.00000000E+00  1.00000000E+00  5.78359582E-12 -5.91027227E-13  0.00000000E+00
 1  9.12499987E-03  4.00099993E-01  0.00000000E+00  1.00000000E+00  1.77482390E+00  1.55851809E-14  0.00000000E+00  1.77482390E+00  1.00000000E+00  1.00000000E+00  5.78270765E-12 -7.27917726E-13  0.00000000E+00
 1  9.37500037E-03  4.00099993E-01  0.00000000E+00  1.00000000E+00  1.77482390E+00  1.55422770E-14  0.00000000E+00  1.77482390E+00  1.00000000E+00  1.00000000E+00  5.78359582E-12 -8.64808225E-13  0.00000000E+00
 1  9.62499995E-03  4.00099993E-01  0.00000000E+00  1.00000000E+00  1.77482390E+00  1.54993731E-14  0.00000000E+00  1.77482390E+00  1.00000000E+00  1.00000000E+00  5.78359582E-12 -9.73277015E-13  0.00000000E+00
 1  9.87500045E-03  4.00099993E-01  0.00000000E+00  1.00000000E+00  1.77482390E+00  1.54564709E-14  0.00000000E+00  1.77482390E+00  1.00000000E+00  1.00000000E+00  5.75428594E-12 -1.11016751E-12  0.00000000E+00
 1  1.01250000E-02  4.00099993E-01  0.00000000E+00  1.00000000E+00  1.77482390E+00  1.54135670E-14  0.00000000E+00  1.77482390E+00  1.00000000E+00  1.00000000E+00  5.75428594E-12 -1.24705801E-12  0.00000000E+00
 1  1.03749996E-02  4.00099993E-01  0.00000000E+00  1.00000000E+00  1.77482390E+00  1.53706630E-14  0.00000000E+00  1.77482390E+00  1.00000000E+00  1.00000000E+00  5.78359582E-12 -1.36973766E-12  0.00000000E+00
 1  1.06250001E-02  4.00099993E-01  0.00000000E+00  1.00000000E+00  1.77482390E+00  1.53277608E-14  0.00000000E+00  1.77482390E+00  1.00000000E+00  1.00000000E+00  5.78359582E-12 -1.50662816E-12  0.00000000E+00
 1  1.08749997E-02  4.00099993E-01  0.00000000E+00  1.00000000E+00  1.77482390E+00  1.52848569E-14  0.00000000E+00  1.77482390E+00  1.00000000E+00  1.00000000E+00  5.78270765E-12 -1.62930780E-12  0.00000000E+00
 1  1.11250002E-02  4.00099993E-01  0.00000000E+00  1.00000000E+00  1.77482390E+00  1.52419530E-14  0.00000000E+00  1.77482390E+00  1.00000000E+00  1.00000000E+00  5.78359582E-12 -1.77330373E-12  0.00000000E+00
 1  1.13749998E-02  4.00099993E-01  0.00000000E+00  1.00000000E+00  1.77482390E+00  1.51990508E-14  0.00000000E+00  1.77482390E+00  1.00000000E+00  1.00000000E+00  5.78359582E-12 -1.86045623E-12  0.00000000E+00
 1  1.16250003E-02  4.00099993E-01  0.00000000E+00  1.00000000E+00  1.77482390E+00  1.51561469E-14  0.00000000E+00  1.77482390E+00  1.00000000E+00  1.00000000E+00  5.78270765E-12 -2.00800487E-12  0.00000000E+00
 1  1.18749999E-02  4.00099993E-01  0.00000000E+00  1.00000000E+00  1.77482390E+00  1.51132430E-14  0.00000000E+00  1.77482390E+00  1.00000000E+00  1.00000000E+00  5.78270765E-12 -2.14933626E-12  0.00000000E+00
 1  1.21250004E-02  4.00099993E-01  0.00000000E+00  1.00000000E+00  1.77482390E+00  1.48010537E-14  0.00000000E+00  1.77482390E+00  1.00000000E+00  1.00000000E+00 -2.31217823E-12 -2.26627744E-12  0.00000000E+00
 1  1.23749999E-02  4.00099993E-01  0.00000000E+00  1.00000000E+00  1.77482390E+00  1.42195758E-14  0.00000000E+00  1.77482390E+00  1.00000000E+00  1.00000000E+00 -2.31217823E-12 -2.35660796E-12  0.00000000E+00
 1  1.26250004E-02  4.00099993E-01  0.00000000E+00  1.00000000E+00  1.77482390E+00  1.36380995E-14  0.00000000E+00  1.77482390E+00  1.00000000E+00  1.00000000E+00 -2.31129005E-12 -2.41851678E-12  0.00000000E+00
 1  1.28750000E-02  4.00099993E-01  0.00000000E+00  1.00000000E+00  1.77482390E+00  1.30566224E-14  0.00000000E+00  1.77482390E+00  1.00000000E+00  1.00000000E+00 -2.31129005E-12 -2.53726901E-12  0.00000000E+00
 1  1.31249996E-02  4.00099993E-01  0.00000000E+00  1.00000000E+00  1.77482390E+00  1.24751453E-14  0.00000000E+00  1.77482390E+00  1.00000000E+00  1.00000000E+00 -2.31217823E-12 -2.62759953E-12  0.00000000E+00
 1  1.33750001E-02  4.00099993E-01  0.00000000E+00  1.00000000E+00  1.77482390E+00  1.18936682E-14  0.00000000E+00  1.77482390E+00  1.00000000E+00  1.00000000E+00 -2.31129005E-12 -2.71793005E-12  0.00000000E+00
 1  1.36249997E-02  4.00099993E-01  0.00000000E+00  1.00000000E+00  1.77482390E+00  1.13121911E-14  0.00000000E+00  1.77482390E+00  1.00000000E+00  1.00000000E+00 -2.31129005E-12 -2.80826057E-12  0.00000000E+00
 1  1.38750002E-02  4.00099993E-01  0.00000000E+00  1.00000000E+00  1.77482390E+00  1.07307140E-14  0.00000000E+00  1.77482390E+00  1.00000000E+00  1.00000000E+00 -2.34059994E-12 -2.89859109E-12  0.00000000E+00
 1  1.41249998E-02  4.00099993E-01  0.00000000E+00  1.00000000E+00  1.77482390E+00  1.01492369E-14  0.00000000E+00  1.77482390E+00  1.00000000E+00  1.00000000E+00 -2.34059994E-12 -3.03155417E-12  0.00000000E+00
 1  1.43750003E-02  4.00099993E-01  0.00000000E+00  1.00000000E+00  1.77482390E+00  9.56775976E-15  0.00000000E+00  1.77482390E+00  1.00000000E+00  1.00000000E+00 -2.31129005E-12 -3.13609555E-12  0.00000000E+00
 1  1.46249998E-02  4.00099993E-01  0.00000000E+00  1.00000000E+00  1.77482390E+00  8.98628265E-15  0.00000000E+00  1.77482390E+00  1.00000000E+00  1.00000000E+00 -2.31129005E-12 -3.22642607E-12  0.00000000E+00
 1  1.48750003E-02  4.00099993E-01  0.00000000E+00  1.00000000E+00  1.77482390E+00  8.40480554E-15  0.00000000E+00  1.77482390E+00  1.00000000E+00  1.00000000E+00 -2.31217823E-12 -3.31675659E-12  0.00000000E+00
 1  1.51249999E-02  4.00099993E-01  0.00000000E+00  1.00000000E+00  1.77482390E+00  7.82332844E-15  0.00000000E+00  1.77482390E+00  1.00000000E+00  1.00000000E+00 -2.31129005E-12 -3.44261425E-12  0.00000000E+00
 1  1.53750004E-02  4.00099993E-01  0.00000000E+00  1.00000000E+00  1.77482390E+00  7.24185133E-15  0.00000000E+00  1.77482390E+00  1.00000000E+00  1.00000000E+00 -2.31129005E-12 -3.51162849E-12  0.00000000E+00
 1  1.56250000E-02  4.00099993E-01  0.00000000E+00  1.00000000E+00  1.77482390E+00  6.66037422E-15  0.00000000E+00  1.77482390E+00  1.00000000E+00  1.00000000E+00 -2.31217823E-12 -3.63748615E-12  0.00000000E+00
 1  1.58750005E-02  4.00099993E-01  0.00000000E+00  1.00000000E+00  1.77482390E+00  6.07889712E-15  0.00000000E+00  1.77482390E+00  1.00000000E+00  1.00000000E+00 -2.31217823E-12 -3.74646841E-12  0.00000000E+00
 1  1.61249992E-02  4.00099993E-01  0.00000000E+00  1.00000000E+00  1.77482390E+00  5.89992456E-15  0.00000000E+00  1.77482390E+00  1.00000000E+00  1.00000000E+00  8.16441359E-12 -4.46896686E-12  0.00000000E+00
 1  1.63749997E-02  4.00099993E-01  0.00000000E+00  1.00000000E+00  1.77482390E+00  6.12345613E-15  0.00000000E+00  1.77482390E+00  1.00000000E+00  1.00000000E+00  8.16441359E-12 -5.85294313E-12  0.00000000E+00
 1  1.66250002E-02  4.00099993E-01  0.00000000E+00  1.00000000E+00  1.77482390E+00  6.34698770E-15  0.00000000E+00  1.77482390E+00  1.00000000E+00  1.00000000E+00  8.16441359E-12 -7.26534111E-12  0.00000000E+00
 1  1.68750007E-02  4.00099993E-01  0.00000000E+00  1.00000000E+00  1.77482390E+00  6.57051928E-15  0.00000000E+00  1.77482390E+00  1.00000000E+00  1.00000000E+00  8.15730816E-12 -8.67773908E-12  0.00000000E+00
 1  1.71249993E-02  4.00099993E-01  0.00000000E+00  1.00000000E+00  1.77482390E+00  6.79405085E-15  0.00000000E+00  1.77482390E+00  1.00000000E+00  1.00000000E+00  8.15641998E-12 -1.00617153E-11  0.00000000E+00
 1  1.73749998E-02  4.00099993E-01  0.00000000E+00  1.00000000E+00  1.77482390E+00  7.01758242E-15  0.00000000E+00  1.77482390E+00  1.00000000E+00  1.00000000E+00  8.15730816E-12 -1.14456916E-11  0.00000000E+00
 1  1.76250003E-02  4.00099993E-01  0.00000000E+00  1.00000000E+00  1.77482390E+00  7.24111357E-15  0.00000000E+00  1.77482390E+00  1.00000000E+00  1.00000000E+00  8.15730816E-12 -1.28865113E-11  0.00000000E+00
 1  1.78750008E-02  4.00099993E-01  0.00000000E+00  1.00000000E+00  1.77482390E+00  7.46464556E-15  0.00000000E+00  1.77482390E+00  1.00000000E+00  1.00000000E+00  8.12799827E-12 -1.42420659E-11  0.00000000E+00
 1  1.81249995E-02  4.00099993E-01  0.00000000E+00  1.00000000E+00  1.77482390E+00  7.68817671E-15  0.00000000E+00  1.77482390E+00  1.00000000E+00  1.00000000E+00  8.12799827E-12 -1.56402530E-11  0.00000000E+00
 1  1.83750000E-02  4.00099993E-01  0.00000000E+00  1.00000000E+00  1.77482390E+00  7.91170870E-15  0.00000000E+00  1.77482390E+00  1.00000000E+00  1.00000000E+00  8.15730816E-12 -1.70952835E-11  0.00000000E+00
 1  1.86250005E-02  4.00099993E-01  0.00000000E+00  1.00000000E+00  1.77482390E+00  8.13523985E-15  0.00000000E+00  1.77482390E+00  1.00000000E+00  1.00000000E+00  8.15730816E-12 -1.84792598E-11  0.00000000E+00
 1  1.88749991E-02  4.00099993E-01  0.00000000E+00  1.00000000E+00  1.77482390E+00  8.35877185E-15  0.00000000E+00  1.77482390E+00  1.00000000E+00  1.00000000E+00  8.15641998E-12 -1.98490252E-11  0.00000000E+00
 1  1.91249996E-02  4.00099993E-01  0.00000000E+00  1.00000000E+00  1.77482390E+00  8.58230299E-15  0.00000000E+00  1.77482390E+00  1.00000000E+00  1.00000000E+00  8.15730816E-12 -2.12969503E-11  0.00000000E+00
 1  1.93750001E-02  4.00099993E-01  0.00000000E+00  1.00000000E+00  1.77482390E+00  8.80583499E-15  0.00000000E+00  1.77482390E+00  1.00000000E+00  1.00000000E+00  8.15730816E-12 -2.26382940E-11  0.00000000E+00
 1  1.96250007E-02  4.00099993E-01  0.00000000E+00  1.00000000E+00  1.77482390E+00  9.02936614E-15  0.00000000E+00  1.77482390E+00  1.00000000E+00  1.00000000E+00  8.15641998E-12 -2.40862191E-11  0.00000000E+00
 1  1.98749993E-02  4.00099993E-01  0.00000000E+00  1.00000000E+00  1.77482390E+00  9.25289813E-15  0.00000000E+00  1.77482390E+00  1.00000000E+00  1.00000000E+00  8.15641998E-12 -2.54844063E-11  0.00000000E+00
 1  2.01249998E-02  4.00099993E-01  0.00000000E+00  1.00000000E+00  1.77482390E+00  9.53051741E-15  0.00000000E+00  1.77482390E+00  1.00000000E+00  1.00000000E+00 -2.05926942E-12 -2.60808389E-11  0.00000000E+00
 1  2.03750003E-02  4.00099993E-01  0.00000000E+00  1.00000000E+00  1.77482390E+00  9.86222568E-15  0.00000000E+00  1.77482390E+00  1.00000000E+00  1.00000000E+00 -2.05926942E-12 -2.60127406E-11  0.00000000E+00
 1  2.06250008E-02  4.00099993E-01  0.00000000E+00  1.00000000E+00  1.77482390E+00  1.01939339E-14  0.00000000E+00  1.77482390E+00  1.00000000E+00  1.00000000E+00 -2.05838124E-12 -2.58593771E-11  0.00000000E+00
 1  2.08749995E-02  4.00099993E-01  0.00000000E+00  1.00000000E+00  1.77482390E+00  1.05256431E-14  0.00000000E+00  1.77482390E+00  1.00000000E+00  1.00000000E+00 -2.05838124E-12 -2.57344354E-11  0.00000000E+00
 1  2.11250000E-02  4.00099993E-01  0.00000000E+00  1.00000000E+00  1.77482390E+00  1.08573513E-14  0.00000000E+00  1.77482390E+00  1.00000000E+00  1.00000000E+00 -2.05926942E-12 -2.56379154E-11  0.00000000E+00
 1  2.13750005E-02  4.00099993E-01  0.00000000E+00  1.00000000E+00  1.77482390E+00  1.11890596E-14  0.00000000E+00  1.77482390E+00  1.00000000E+00  1.00000000E+00 -2.05838124E-12 -2.55129737E-11  0.00000000E+00
 1  2.16249991E-02  4.00099993E-01  0.00000000E+00  1.00000000E+00  1.77482390E+00  1.15207679E-14  0.00000000E+00  1.77482390E+00  1.00000000E+00  1.00000000E+00 -2.05838124E-12 -2.54164537E-11  0.00000000E+00
 1  2.18749996E-02  4.00099993E-01  0.00000000E+00  1.00000000E+00  1.77482390E+00  1.18524761E-14  0.00000000E+00  1.77482390E+00  1.00000000E+00  1.00000000E+00 -2.08769113E-12 -2.52346685E-11  0.00000000E+00
 1  2.21250001E-02  4.00099993E-01  0.00000000E+00  1.00000000E+00  1.77482390E+00  1.21841844E-14  0.00000000E+00  1.77482390E+00  1.00000000E+00  1.00000000E+00 -2.08769113E-12 -2.51097268E-11  0.00000000E+00
 1  2.23750006E-02  4.00099993E-01  0.00000000E+00  1.00000000E+00  1.77482390E+00  1.25158927E-14  0.00000000E+00  1.77482390E+00  1.00000000E+00  1.00000000E+00 -2.05838124E-12 -2.50132068E-11  0.00000000E+00
 1  2.26249993E-02  4.00099993E-01  0.00000000E+00  1.00000000E+00  1.77482390E+00  1.28476009E-14  0.00000000E+00  1.77482390E+00  1.00000000E+00  1.00000000E+00 -2.05838124E-12 -2.48882651E-11  0.00000000E+00
 1  2.28749998E-02  4.00099993E-01  0.00000000E+00  1.00000000E+00  1.77482390E+00  1.31793092E-14  0.00000000E+00  1.77482390E+00  1.00000000E+00  1.00000000E+00 -2.05926942E-12 -2.47206908E-11  0.00000000E+00
 1  2.31250003E-02  4.00099993E-01  0.00000000E+00  1.00000000E+00  1.77482390E+00  1.35110175E-14  0.00000000E+00  1.77482390E+00  1.00000000E+00  1.00000000E+00 -2.05838124E-12 -2.46383816E-11  0.00000000E+00
 1  2.33750008E-02  4.00099993E-01  0.00000000E+00  1.00000000E+00  1.77482390E+00  1.38427257E-14  0.00000000E+00  1.77482390E+00  1.00000000E+00  1.00000000E+00 -2.05127582E-12 -2.45134399E-11  0.00000000E+00
 1  2.36249994E-02  4.00099993E-01  0.00000000E+00  1.00000000E+00  1.77482390E+00  1.41744348E-14  0.00000000E+00  1.77482390E+00  1.00000000E+00  1.00000000E+00 -2.05127582E-12 -2.43884982E-11  0.00000000E+00
 1  2.38750000E-02  4.00099993E-01  0.00000000E+00  1.00000000E+00  1.77482390E+00  1.45061423E-14  0.00000000E+00  1.77482390E+00  1.00000000E+00  1.00000000E+00 -2.05127582E-12 -2.42813200E-11  0.00000000E+00
 1  2.41250005E-02  4.00099993E-01  0.00000000E+00  1.00000000E+00  1.77482390E+00  1.42905995E-14  0.00000000E+00  1.77482390E+00  1.00000000E+00  1.00000000E+00 -7.61579688E-12 -2.38562781E-11  0.00000000E+00
 1  2.43749991E-02  4.00099993E-01  0.00000000E+00  1.00000000E+00  1.77482390E+00  1.35278031E-14  0.00000000E+00  1.77482390E+00  1.00000000E+00  1.00000000E+00 -7.61579688E-12 -2.30973851E-11  0.00000000E+00
 1  2.46249996E-02  4.00099993E-01  0.00000000E+00  1.00000000E+00  1.77482390E+00  1.27650076E-14  0.00000000E+00  1.77482390E+00  1.00000000E+00  1.00000000E+00 -7.61579688E-12 -2.23953356E-11  0.00000000E+00
 1  2.48750001E-02  4.00099993E-01  0.00000000E+00  1.00000000E+00  1.77482390E+00  1.20022121E-14  0.00000000E+00  1.77482390E+00  1.00000000E+00  1.00000000E+00 -7.62290231E-12 -2.16080209E-11  0.00000000E+00
 1  2.51250006E-02  4.00099993E-01  0.00000000E+00  1.00000000E+00  1.77482390E+00  1.12394157E-14  0.00000000E+00  1.77482390E+00  1.00000000E+00  1.00000000E+00 -7.62379049E-12 -2.08775497E-11  0.00000000E+00
 1  2.53749993E-02  4.00099993E-01  0.00000000E+00  1.00000000E+00  1.77482390E+00  1.04766202E-14  0.00000000E+00  1.77482390E+00  1.00000000E+00  1.00000000E+00 -7.62290231E-12 -2.01470784E-11  0.00000000E+00
 1  2.56249998E-02  4.00099993E-01  0.00000000E+00  1.00000000E+00  1.77482390E+00  9.71382466E-15  0.00000000E+00  1.77482390E+00  1.00000000E+00  1.00000000E+00 -7.62290231E-12 -1.93597638E-11  0.00000000E+00
 1  2.58750003E-02  4.00099993E-01  0.00000000E+00  1.00000000E+00  1.77482390E+00  8.95102829E-15  0.00000000E+00  1.77482390E+00  1.00000000E+00  1.00000000E+00 -7.65221220E-12 -1.86292926E-11  0.00000000E+00
 1  2.61250008E-02  4.00099993E-01  0.00000000E+00  1.00000000E+00  1.77482390E+00  8.18823277E-15  0.00000000E+00  1.77482390E+00  1.00000000E+00  1.00000000E+00 -7.65221220E-12 -1.78846105E-11  0.00000000E+00
 1  2.63749994E-02  4.00099993E-01  0.00000000E+00  1.00000000E+00  1.77482390E+00  7.42543725E-15  0.00000000E+00  1.77482390E+00  1.00000000E+00  1.00000000E+00 -7.62290231E-12 -1.71825609E-11  0.00000000E+00
 1  2.66249999E-02  4.00099993E-01  0.00000000E+00  1.00000000E+00  1.77482390E+00  6.66264131E-15  0.00000000E+00  1.77482390E+00  1.00000000E+00  1.00000000E+00 -7.62290231E-12 -1.64520897E-11  0.00000000E+00
 1  2.68750004E-02  4.00099993E-01  0.00000000E+00  1.00000000E+00  1.77482390E+00  5.89984536E-15  0.00000000E+00  1.77482390E+00  1.00000000E+00  1.00000000E+00 -7.62379049E-12 -1.56647750E-11  0.00000000E+00
 1  2.71249991E-02  4.00099993E-01  0.00000000E+00  1.00000000E+00  1.77482390E+00  5.13704984E-15  0.00000000E+00  1.77482390E+00  1.00000000E+00  1.00000000E+00 -7.62290231E-12 -1.49556201E-11  0.00000000E+00
 1  2.73749996E-02  4.00099993E-01  0.00000000E+00  1.00000000E+00  1.77482390E+00  4.37425390E-15  0.00000000E+00  1.77482390E+00  1.00000000E+00  1.00000000E+00 -7.62290231E-12 -1.41754108E-11  0.00000000E+00
 1  2.76250001E-02  4.00099993E-01  0.00000000E+00  1.00000000E+00  1.77482390E+00  3.61145795E-15  0.00000000E+00  1.77482390E+00  1.00000000E+00  1.00000000E+00 -7.62379049E-12 -1.34662559E-11  0.00000000E+00
 1  2.78750006E-02  4.00099993E-01  0.00000000E+00  1.00000000E+00  1.77482390E+00  2.84866222E-15  0.00000000E+00  1.77482390E+00  1.00000000E+00  1.00000000E+00 -7.62379049E-12 -1.27118038E-11  0.00000000E+00
 1  2.81249993E-02  4.00099993E-01  0.00000000E+00  1.00000000E+00  1.77482390E+00  2.21122842E-15  0.00000000E+00  1.77482390E+00  1.00000000E+00  1.00000000E+00  1.95704564E-12 -1.21937599E-11  0.00000000E+00
 1  2.83749998E-02  4.00099993E-01  0.00000000E+00  1.00000000E+00  1.77482390E+00  1.69915677E-15  0.00000000E+00  1.77482390E+00  1.00000000E+00  1.00000000E+00  1.95704564E-12 -1.18233062E-11  0.00000000E+00
 1  2.86250003E-02  4.00099993E-01  0.00000000E+00  1.00000000E+00  1.77482390E+00  1.18708502E-15  0.00000000E+00  1.77482390E+00  1.00000000E+00  1.00000000E+00  1.95704564E-12 -1.15381177E-11  0.00000000E+00
 1  2.88750008E-02  4.00099993E-01  0.00000000E+00  1.00000000E+00  1.77482390E+00  6.75013208E-16  0.00000000E+00  1.77482390E+00  1.00000000E+00  1.00000000E+00  1.95704564E-12 -1.11676640E-11  0.00000000E+00
 1  2.91249994E-02  4.00099993E-01  0.00000000E+00  1.00000000E+00  1.77482390E+00  1.62941438E-16  0.00000000E+00  1.77482390E+00  1.00000000E+00  1.00000000E+00  1.95793382E-12 -1.07687886E-11  0.00000000E+00
 1  2.93749999E-02  4.00099993E-01  0.00000000E+00  1.00000000E+00  1.77482390E+00 -3.49130331E-16  0.00000000E+00  1.77482390E+00  1.00000000E+00  1.00000000E+00  1.95793382E-12 -1.04836001E-11  0.00000000E+00
 1  2.96250004E-02  4.00099993E-01  0.00000000E+00  1.00000000E+00  1.77482390E+00 -8.61202114E-16  0.00000000E+00  1.77482390E+00  1.00000000E+00  1.00000000E+00  1.92862393E-12 -1.01131464E-11  0.00000000E+00
 1  2.98749991E-02  4.00099993E-01  0.00000000E+00  1.00000000E+00  1.77482390E+00 -1.37327387E-15  0.00000000E+00  1.77482390E+00  1.00000000E+00  1.00000000E+00  1.92862393E-12 -9.77111447E-12  0.00000000E+00
 1  3.01249996E-02  4.00099993E-01  0.00000000E+00  1.00000000E+00  1.77482390E+00 -1.88534563E-15  0.00000000E+00  1.77482390E+00  1.00000000E+00  1.00000000E+00  1.92862393E-12 -9.42908251E-12  0.00000000E+00
 1  3.03750001E-02  4.00099993E-01  0.00000000E+00  1.00000000E+00  1.77482390E+00 -2.39741749E-15  0.00000000E+00  1.77482390E+00  1.00000000E+00  1.00000000E+00  1.92862393E-12 -9.10126141E-12  0.00000000E+00
 1  3.06250006E-02  4.00099993E-01  0.00000000E+00  1.00000000E+00  1.77482390E+00 -2.90948914E-15  0.00000000E+00  1.77482390E+00  1.00000000E+00  1.00000000E+00  1.95793382E-12 -8.77344031E-12  0.00000000E+00
 1  3.08749992E-02  4.00099993E-01  0.00000000E+00  1.00000000E+00  1.77482390E+00 -3.42156100E-15  0.00000000E+00  1.77482390E+00  1.00000000E+00  1.00000000E+00  1.95793382E-12 -8.43140835E-12  0.00000000E+00
 1  3.11249997E-02  4.00099993E-01  0.00000000E+00  1.00000000E+00  1.77482390E+00 -3.93363287E-15  0.00000000E+00  1.77482390E+00  1.00000000E+00  1.00000000E+00  1.95704564E-12 -8.10358725E-12  0.00000000E+00
 1  3.13749984E-02  4.00099993E-01  0.00000000E+00  1.00000000E+00  1.77482390E+00 -4.44570452E-15  0.00000000E+00  1.77482390E+00  1.00000000E+00  1.00000000E+00  1.96503924E-12 -7.71892272E-12  0.00000000E+00
 1  3.16249989E-02  4.00099993E-01  0.00000000E+00  1.00000000E+00  1.77482390E+00 -4.95777617E-15  0.00000000E+00  1.77482390E+00  1.00000000E+00  1.00000000E+00  1.93661753E-12 -7.40531247E-12  0.00000000E+00
 1  3.18749994E-02  4.00099993E-01  0.00000000E+00  1.00000000E+00  1.77482390E+00 -5.46984782E-15  0.00000000E+00  1.77482390E+00  1.00000000E+00  1.00000000E+00  1.93661753E-12 -7.03841152E-12  0.00000000E+00
 1  3.21249999E-02  4.00099993E-01  0.00000000E+00  1.00000000E+00  1.77482390E+00 -5.94555550E-15  0.00000000E+00  1.77482390E+00  1.00000000E+00  1.00000000E+00 -1.29252165E-12 -6.17222939E-12  0.00000000E+00
 1  3.23750004E-02  4.00099993E-01  0.00000000E+00  1.00000000E+00  1.77482390E+00 -6.38489920E-15  0.00000000E+00  1.77482390E+00  1.00000000E+00  1.00000000E+00 -1.29252165E-12 -4.83518781E-12  0.00000000E+00
 1  3.26250009E-02  4.00099993E-01  0.00000000E+00  1.00000000E+00  1.77482390E+00 -6.82424291E-15  0.00000000E+00  1.77482390E+00  1.00000000E+00  1.00000000E+00 -1.29252165E-12 -3.49814622E-12  0.00000000E+00
 1  3.28750014E-02  4.00099993E-01  0.00000000E+00  1.00000000E+00  1.77482390E+00 -7.26358620E-15  0.00000000E+00  1.77482390E+00  1.00000000E+00  1.00000000E+00 -1.29252165E-12 -2.16110463E-12  0.00000000E+00
 1  3.31249982E-02  4.00099993E-01  0.00000000E+00  1.00000000E+00  1.77482390E+00 -7.70293033E-15  0.00000000E+00  1.77482390E+00  1.00000000E+00  1.00000000E+00 -1.29163347E-12 -8.24063040E-13  0.00000000E+00
 1  3.33749987E-02  4.00099993E-01  0.00000000E+00  1.00000000E+00  1.77482390E+00 -8.14227361E-15  0.00000000E+00  1.77482390E+00  1.00000000E+00  1.00000000E+00 -1.29163347E-12  5.12978549E-13  0.00000000E+00
 1  3.36249992E-02  4.00099993E-01  0.00000000E+00  1.00000000E+00  1.77482390E+00 -8.58161690E-15  0.00000000E+00  1.77482390E+00  1.00000000E+00  1.00000000E+00 -1.29163347E-12  1.85002014E-12  0.00000000E+00
 1  3.38749997E-02  4.00099993E-01  0.00000000E+00  1.00000000E+00  1.77482390E+00 -9.02096103E-15  0.00000000E+00  1.77482390E+00  1.00000000E+00  1.00000000E+00 -1.29163347E-12  3.21548344E-12  0.00000000E+00
 1  3.41250002E-02  4.00099993E-01  0.00000000E+00  1.00000000E+00  1.77482390E+00 -9.46030431E-15  0.00000000E+00  1.77482390E+00  1.00000000E+00  1.00000000E+00 -1.29163347E-12  4.55252502E-12  0.00000000E+00
 1  3.43750007E-02  4.00099993E-01  0.00000000E+00  1.00000000E+00  1.77482390E+00 -9.89964844E-15  0.00000000E+00  1.77482390E+00  1.00000000E+00  1.00000000E+00 -1.29163347E-12  5.90377747E-12  0.00000000E+00
 1  3.46250013E-02  4.00099993E-01  0.00000000E+00  1.00000000E+00  1.77482390E+00 -1.03389917E-14  0.00000000E+00  1.77482390E+00  1.00000000E+00  1.00000000E+00 -1.29163347E-12  7.24081906E-12  0.00000000E+00
 1  3.48750018E-02  4.00099993E-01  0.00000000E+00  1.00000000E+00  1.77482390E+00 -1.07783350E-14  0.00000000E+00  1.77482390E+00  1.00000000E+00  1.00000000E+00 -1.29163347E-12  8.59207150E-12  0.00000000E+00